16
Lattice="-3.9479920052493815 1.477732403187663 -3.6514316104179403 0.8472119473640928 6.284852290798357 1.3502452778610745 8.714190520254547 -4.8647252979605655 -6.571509553192891" Properties=species:S:1:pos:R:3:masses:R:1:momenta:R:3 ns_energy=-27044.80813751459 volume=377.76649046576154 committee_std=0.0012627311437979501 KEmax=76.970702383392 last_walked_iter_extra=108213 last_walked_iter_clone=107986 iter=108219 ns_P=0.0 config_type=mg16_hole config_n_global=108219 ns_KE=0.20780644841946375 temp=-inf pbc="T T T"
Mg      -1.45419905       5.86503294      -0.91108956       1.00000000      -0.05538671       0.07887668      -0.06721637
Mg       3.74338549       0.71249138      -3.78511465       1.00000000      -0.04144821       0.11400064      -0.21217182
Mg       0.27958132       3.51697293       0.50893606       1.00000000      -0.12277157       0.00591011       0.01680262
Mg      -1.36520349       3.29976938      -4.57938668       1.00000000       0.03082905      -0.07307174      -0.01491798
Mg       1.47504330      -0.19313269      -5.89929642       1.00000000       0.03560918       0.02312476      -0.02615008
Mg       3.68517428      -1.81315807      -7.42170793       1.00000000      -0.01033623       0.04561921      -0.09781868
Mg       1.82403194       2.92611224      -5.20967463       1.00000000       0.04179005       0.07290323      -0.04387552
Mg       6.73258777      -2.23796131      -8.11790884       1.00000000       0.13587774      -0.09824824       0.01969187
Mg       0.31484324       0.96895854      -3.07614242       1.00000000      -0.16614907       0.05019258      -0.10531356
Mg       8.57452824      -4.51408915      -6.58829352       1.00000000       0.04508253      -0.17427729       0.21563146
Mg      -0.89332863       6.45894604      -3.98169597       1.00000000       0.18955279      -0.10575967       0.04438446
Mg       4.12834636       1.34301036      -6.85478414       1.00000000       0.02739203       0.11399770      -0.04211268
Mg       4.05963107       3.76723936      -2.96583548       1.00000000      -0.01433526      -0.03373639       0.00284563
Mg       5.95451080      -0.93289230      -5.37973393       1.00000000       0.04380593       0.01150795      -0.03459271
Mg       0.77669109       4.01527890      -2.45008329       1.00000000       0.22995990      -0.07811613       0.05414701
Mg       6.45022794       2.20921601      -4.58358347       1.00000000       0.01697612      -0.12908636      -0.01582032
16
Lattice="-7.522800691447705 -4.824563129513446 -6.510941495833086 -0.46748516558012754 2.5813386766158835 7.873253759416422 4.373300859905389 6.913790093584093 -0.6227510686824358" Properties=species:S:1:pos:R:3:masses:R:1:momenta:R:3 ns_energy=-27042.551590678522 volume=351.4199391529699 committee_std=0.0010839269619963635 KEmax=76.970702383392 last_walked_iter_extra=109157 last_walked_iter_clone=108689 iter=109159 ns_P=0.006242 config_type=mg16_hole config_n_global=109159 ns_KE=0.20126269349718046 temp=17.484093214770606 pbc="T T T"
Mg       1.08961378       2.38216338      -0.39830363       1.00000000       0.05547970      -0.01186985      -0.02703540
Mg       0.84401535       4.25491665      -2.85319729       1.00000000      -0.02716589      -0.05985832      -0.16288807
Mg      -2.06154815       3.00285977      -3.34762043       1.00000000       0.07274066      -0.04905040      -0.10943183
Mg       2.55417136       6.65507815       2.78132693       1.00000000      -0.15232658       0.06597184       0.01700153
Mg       3.33322854       7.87743681       5.49184637       1.00000000       0.05616513       0.04216015      -0.11353324
Mg      -5.63571523      -1.24882748      -4.04958863       1.00000000       0.07665746       0.13901831      -0.09756321
Mg      -2.48878979      -0.06652073      -3.56486438       1.00000000      -0.13447860       0.14998989       0.00183234
Mg      -3.94342808       1.21576336       1.57224400       1.00000000      -0.10401525       0.15765931       0.16753335
Mg      -0.11411244       3.58070462       4.92960621       1.00000000       0.00594879       0.04456984      -0.09791456
Mg       1.65758760       5.44292771      -0.02702118       1.00000000      -0.01918198      -0.05360089       0.18455237
Mg      -0.93372087       2.42678131       2.06031132       1.00000000      -0.16189947       0.04504872      -0.01007564
Mg      -4.75777320      -0.00571562      -1.29899297       1.00000000      -0.07879721       0.02612287      -0.04682665
Mg      -1.96024716       1.19643284      -0.75931145       1.00000000       0.04238766       0.00336904      -0.01575062
Mg      -2.91720288       1.74663266      -6.16616752       1.00000000       0.01234725      -0.10305449      -0.14492168
Mg      -0.43213961       5.58075119       2.22155626       1.00000000       0.09671959       0.13434949       0.07624435
Mg      -1.24304412       4.20442887      -0.50919600       1.00000000       0.04994522       0.07666760      -0.03970821
16
Lattice="5.939354882421703 1.6073010430085017 0.15836363822652133 -1.0940975438980172 3.7817024683162956 -3.680847169217158 0.254802781750205 4.947460932359121 9.292764429571726" Properties=species:S:1:pos:R:3:masses:R:1:momenta:R:3 ns_energy=-27034.02933471184 volume=330.70873231571903 committee_std=0.0014492901432722396 KEmax=76.970702383392 last_walked_iter_extra=110919 last_walked_iter_clone=110675 iter=110949 ns_P=0.03121 config_type=mg16_hole config_n_global=110949 ns_KE=0.22212412914656587 temp=-inf pbc="T T T"
Mg       3.74631880       5.54041841       1.36708840       1.00000000      -0.01101897       0.08414139      -0.02910815
Mg       5.76919093       4.17366192       3.19094191       1.00000000       0.17490417      -0.09757205      -0.02865204
Mg       2.78591843       3.29744088       3.15947141       1.00000000      -0.01651111      -0.13339066      -0.10663542
Mg       1.96495468       6.13056369       3.69271770       1.00000000       0.10401445      -0.06955597       0.04199693
Mg      -0.13800205       2.11199846      -0.01382375       1.00000000      -0.03862134      -0.04664099      -0.10442302
Mg      -0.08189018       8.04440551       4.99181321       1.00000000      -0.00273906      -0.00117473      -0.01873161
Mg       2.81679778       2.84446890       0.02619583       1.00000000      -0.01546217      -0.25115198       0.08971781
Mg       4.88790427       7.30550520       6.87129032       1.00000000       0.19712216       0.00985962       0.04544833
Mg       2.93818029       8.76024322       5.00343308       1.00000000       0.09649554       0.01433582       0.08148044
Mg       1.07189446       3.86691335       5.62206676       1.00000000       0.15053836       0.04382687      -0.06555241
Mg       0.80481687       4.39848962      -1.77455252       1.00000000       0.09914925       0.07106958       0.01696896
Mg       3.96388645       4.72217600       5.64364306       1.00000000       0.12208304       0.02172328      -0.01838766
Mg       0.67396646       4.76617977       1.21292106       1.00000000      -0.06514835      -0.15865838       0.17121690
Mg       5.00767072       6.90181461       3.84092302       1.00000000      -0.11776129       0.14288378       0.07791927
Mg       3.87163851       5.17269625      -1.72399421       1.00000000      -0.15883707      -0.07560353      -0.04771405
Mg       1.87228837       6.58399805       6.91136028       1.00000000      -0.08705161       0.00958498       0.07207713
16
Lattice="-2.523024483916897 -5.077227523788709 0.5826776519852321 -1.2292521715257776 -3.4100794846153804 6.2088596154398425 -10.039510497031175 0.006071409029025544 2.4589307487509964" Properties=species:S:1:pos:R:3:masses:R:1:momenta:R:3 ns_energy=-27024.214632081945 volume=302.43520878621695 committee_std=0.0025698719665667776 KEmax=76.970702383392 last_walked_iter_extra=113581 last_walked_iter_clone=113580 iter=113589 ns_P=0.06242 config_type=mg16_hole config_n_global=113589 ns_KE=0.19566323799497773 temp=-inf pbc="T T T"
Mg     -11.07628005      -3.01746639       4.08680892       1.00000000       0.04120910       0.04304799      -0.22232032
Mg      -3.15314828      -2.56545533       3.73697587       1.00000000      -0.05892044       0.04111412       0.03153092
Mg     -11.29433630      -4.88902077       6.38632724       1.00000000      -0.07455842       0.05900842      -0.03393143
Mg      -9.53047948      -0.64597226       3.05445550       1.00000000      -0.04589230      -0.04474494      -0.08868396
Mg      -4.41332824      -0.60110792       1.77805822       1.00000000       0.12626525       0.05584196      -0.15551311
Mg      -3.50606649      -4.48686359       5.88847048       1.00000000      -0.13097836       0.16769821      -0.06238906
Mg      -8.11723665      -2.51147838       4.88657010       1.00000000       0.02251324      -0.03107881      -0.13205354
Mg      -5.90659540      -2.91174816       3.06548794       1.00000000       0.04426342       0.06873724      -0.15459991
Mg      -8.82360049      -3.44822007       2.21566205       1.00000000      -0.10271613       0.15001826       0.07392078
Mg      -9.17864186      -5.29574630       4.49645802       1.00000000       0.08445397       0.06825921      -0.08169831
Mg      -4.12888940      -5.37778610       3.13851806       1.00000000      -0.01092271       0.04602830      -0.01129863
Mg      -5.03841600      -6.77473809       7.07396358       1.00000000       0.06295776      -0.04359072       0.02449537
Mg      -6.28798122      -4.83228164       5.17563451       1.00000000      -0.07564546      -0.07056670       0.10418623
Mg     -12.91412222      -7.21819175       7.49882901       1.00000000       0.01285891      -0.09080624      -0.02756083
Mg      -8.49113686      -4.46171112       7.38252394       1.00000000      -0.10601812      -0.13047154       0.11996888
Mg      -7.86336131      -7.12408202       6.43528783       1.00000000       0.11281443       0.12698528      -0.00800690
16
Lattice="-4.56780387904865 -6.102808528887807 -8.637410519512441 2.8206290388894395 -4.107301350433747 3.1396291155794898 -6.150484386771453 -7.358350501087842 -3.4861070426566503" Properties=species:S:1:pos:R:3:masses:R:1:momenta:R:3 ns_energy=-27015.046882251136 volume=284.3742998171748 committee_std=0.0029854983529518336 KEmax=76.970702383392 last_walked_iter_extra=114415 last_walked_iter_clone=114305 iter=114429 ns_P=0.09363 config_type=mg16_hole config_n_global=114429 ns_KE=0.19213572086112796 temp=-inf pbc="T T T"
Mg      -1.63995010      -7.32885897      -3.66482904       1.00000000      -0.06355220      -0.08704901      -0.07833993
Mg      -2.50158413     -10.21068435      -3.77865785       1.00000000      -0.10308218       0.01683107       0.07130353
Mg      -6.90685830     -11.81926545      -7.06022421       1.00000000      -0.09382179       0.20547148       0.05652612
Mg      -5.59608510     -13.84564082      -5.50859573       1.00000000       0.12501831       0.01482962       0.10752250
Mg      -5.32431981      -9.33389465      -3.02049053       1.00000000       0.00999820      -0.02893263       0.11542957
Mg      -6.13776839      -8.93445697      -6.93513487       1.00000000       0.03586060      -0.12045160       0.08646317
Mg      -2.19130430      -5.68846268      -1.34795643       1.00000000       0.09544254      -0.02107211       0.01148817
Mg      -0.75276809      -7.67566022       0.22698131       1.00000000      -0.18164737       0.02340455      -0.07810119
Mg      -4.50916169      -6.40874219      -2.97497355       1.00000000       0.09435660       0.01248899      -0.00065405
Mg      -3.05454263      -5.15848663      -5.19320473       1.00000000       0.13137684      -0.00572434      -0.07289970
Mg       0.08156204      -4.85081657       0.31326946       1.00000000       0.06191800      -0.05460012       0.01079643
Mg      -3.93206014     -11.43309972      -1.44374093       1.00000000      -0.03261287       0.08322126      -0.09677843
Mg      -3.88740823      -8.10018273      -5.29172243       1.00000000      -0.03910955       0.24151966      -0.03252379
Mg      -4.80032878     -10.92714473      -5.32661645       1.00000000       0.02207042       0.13217002       0.06825067
Mg      -3.03341785      -8.48972119      -1.43008372       1.00000000       0.09199982      -0.11815129      -0.06869786
Mg      -1.34502119      -2.77389207      -1.18631183       1.00000000       0.09911496      -0.05366916      -0.05199410
16
Lattice="-2.5433177466024848 13.253949698696674 0.4963289715201367 3.8777245080261995 2.53127728113582 -0.9107910336281987 0.4091572757793003 -11.504039694142993 -4.72352268172479" Properties=species:S:1:pos:R:3:masses:R:1:momenta:R:3 ns_energy=-27006.37485213411 volume=272.22963623061503 committee_std=0.002972028085340141 KEmax=76.970702383392 last_walked_iter_extra=115521 last_walked_iter_clone=115110 iter=115529 ns_P=0.12484 config_type=mg16_hole config_n_global=115529 ns_KE=0.1974843560664088 temp=80.25147865889627 pbc="T T T"
Mg       1.00310284       6.25382262      -1.68001377       1.00000000      -0.01209695      -0.03370336       0.09268472
Mg      -0.17265612      -0.50632252      -0.71998510       1.00000000       0.07935914      -0.11322070       0.01301846
Mg       0.93837700      -2.64616551      -2.24321722       1.00000000       0.14521031      -0.11291669      -0.05283889
Mg       3.00476896      -7.21591266      -4.96420462       1.00000000      -0.16894209      -0.07741790       0.06972725
Mg      -0.74274306      -0.72896292      -3.72692453       1.00000000      -0.02389512      -0.18216898       0.14396997
Mg      -0.14854841       3.61744375      -1.15982667       1.00000000       0.09223059       0.01099226       0.05616281
Mg       2.74040689       8.39834412      -0.69151337       1.00000000       0.14501807       0.15222684      -0.02510918
Mg       2.00177367       4.02696156      -3.06327002       1.00000000       0.00168167       0.05298219      -0.13772240
Mg       0.98764997       1.38252616      -2.64389229       1.00000000       0.01619084      -0.09223105      -0.02371873
Mg       2.15150392      -0.79402135      -4.02926218       1.00000000      -0.02966592       0.01888193      -0.04342557
Mg      -0.64149879       3.41512305      -3.91509540       1.00000000       0.01300011       0.16419962       0.04019554
Mg       0.06148918      12.68952084      -0.74614714       1.00000000      -0.04467933      -0.07030058       0.08937159
Mg      -1.70720330       5.69017779      -2.58831286       1.00000000      -0.00147536       0.09370775       0.08847183
Mg       1.90126948      -4.92679657      -3.60406982       1.00000000       0.04899318       0.21093408      -0.05288812
Mg       1.12692660      10.46817157      -2.09880558       1.00000000       0.03236828       0.04162046       0.15781438
Mg      -0.07636180       8.53919827      -0.32270611       1.00000000      -0.02532906       0.02508455       0.07433165
16
Lattice="1.3228054695248581 1.0876793701713923 5.168720848532079 4.978789954029598 1.8004887375915144 0.9452167868229581 -9.495219970039017 6.42881964318625 -7.569413161156373" Properties=species:S:1:pos:R:3:masses:R:1:momenta:R:3 ns_energy=-26998.106886447727 volume=258.9663679969197 committee_std=0.0030007107037518283 KEmax=76.970702383392 last_walked_iter_extra=116648 last_walked_iter_clone=116650 iter=116659 ns_P=0.15605 config_type=mg16_hole config_n_global=116659 ns_KE=0.19222710674875707 temp=-inf pbc="T T T"
Mg      -4.68587876       4.97655447      -2.61217235       1.00000000      -0.09167820       0.00744544      -0.00184265
Mg       0.12354809       1.79635987       1.21755559       1.00000000      -0.02564316       0.17427035       0.07266639
Mg       0.25752472       4.28818665      -0.27650002       1.00000000       0.02694456       0.20064268      -0.01253338
Mg       3.30184706       3.17785302       4.18612491       1.00000000      -0.00391849       0.07611927       0.13493255
Mg       2.99349348       1.88129031       1.67773019       1.00000000      -0.20158998      -0.19217689       0.03372748
Mg       1.07901528       1.52608800       3.83588796       1.00000000       0.04258810      -0.03622094      -0.01724811
Mg       1.25789234       4.06711014       2.41237734       1.00000000      -0.06855069      -0.08910281      -0.05779176
Mg      -3.69391438       4.71058149       0.15155783       1.00000000      -0.00607441      -0.09791506      -0.08354431
Mg      -3.54235691       7.24924900      -1.35491160       1.00000000       0.00416777       0.10970798       0.04089146
Mg      -6.31762654       7.10144870      -1.93199656       1.00000000      -0.15093271       0.04442806      -0.00772972
Mg      -1.42700761       6.48538845       0.44532486       1.00000000      -0.11898976       0.05330801       0.05654882
Mg      -1.90842714       2.56964484      -0.63933511       1.00000000       0.04453486       0.04740692      -0.03173574
Mg      -1.57779396       3.96271460       1.80113728       1.00000000      -0.02056546      -0.02429851       0.12740804
Mg      -6.72855115       5.82640792      -4.38244711       1.00000000       0.05594346      -0.01387924      -0.11269506
Mg      -4.52458924       7.49389018      -4.07079425       1.00000000       0.00844169       0.03497107      -0.16481709
Mg      -1.82973046       5.08564184      -1.93828467       1.00000000      -0.10248764       0.05983592       0.14150878
16
Lattice="3.7998448882513434 -8.646860714539724 1.1889322334156653 5.508862130291505 0.6247832331288249 0.23060567925441633 -3.0532749683694727 0.17702877933934302 4.772910924855744" Properties=species:S:1:pos:R:3:masses:R:1:momenta:R:3 ns_energy=-26990.180289460634 volume=248.04652362756153 committee_std=0.0033174900079366012 KEmax=76.970702383392 last_walked_iter_extra=116878 last_walked_iter_clone=116759 iter=116879 ns_P=0.18726 config_type=mg16_hole config_n_global=116879 ns_KE=0.24401142841675671 temp=87.19710539366794 pbc="T T T"
Mg       3.51241888      -0.28565416       3.57721156       1.00000000      -0.02780361       0.02132172      -0.08442078
Mg       2.37171543      -2.54276195       4.71584603       1.00000000       0.02771826       0.04673532      -0.10608059
Mg       3.93500626      -2.71181218       2.28024822       1.00000000       0.08438169      -0.18579033      -0.00236759
Mg       5.65148250      -4.87312986       1.72635901       1.00000000       0.21575210      -0.09427549       0.04611897
Mg       4.43029799      -7.16717156       2.82908543       1.00000000       0.01173917       0.02384561       0.12603958
Mg       2.91749602      -5.20283278       1.64364743       1.00000000       0.05239613       0.04906162      -0.04455668
Mg       7.11729335      -6.86241530       2.98407975       1.00000000      -0.04679655      -0.07499836       0.02121852
Mg       0.79485407      -0.57116545       3.48730253       1.00000000       0.06982874       0.10365984      -0.10828401
Mg       5.62954482      -6.78722919       5.38165068       1.00000000      -0.02113356      -0.12991496       0.08194532
Mg       2.87904934      -7.07112110       5.22973948       1.00000000       0.02338984       0.11254758       0.12517998
Mg       1.16907829      -2.98210473       2.22572961       1.00000000      -0.01834066       0.09121231      -0.08545274
Mg       5.11035958      -0.43113108       1.24936578       1.00000000       0.20028717       0.02302850       0.10736775
Mg      -0.36238097      -2.88948218       4.53306724       1.00000000      -0.01600500       0.15303428       0.06529885
Mg       2.35161384      -0.68888380       1.11207576       1.00000000      -0.02082869      -0.18474016      -0.16784737
Mg       4.13111899      -4.77504998       4.18474665       1.00000000       0.20044066      -0.09593719      -0.14670651
Mg       1.43188829      -5.02213093       4.00286578       1.00000000       0.13925396       0.05136815       0.04742990
16
Lattice="2.0580226495755802 -3.192337280818601 -3.749060224281546 7.7217793860631865 -5.950783580730247 5.211021481436681 3.2565156658313295 -6.799554306909924 7.874557351143925" Properties=species:S:1:pos:R:3:masses:R:1:momenta:R:3 ns_energy=-26982.560233591452 volume=240.6121298593663 committee_std=0.003375498496381172 KEmax=76.970702383392 last_walked_iter_extra=117003 last_walked_iter_clone=116752 iter=117009 ns_P=0.21847 config_type=mg16_hole config_n_global=117009 ns_KE=0.24114792122197914 temp=53.3976640854729 pbc="T T T"
Mg      10.15638358     -10.65502137       6.35533048       1.00000000       0.14521063       0.07018766      -0.07550470
Mg       4.56208771      -5.89260205       5.21478526       1.00000000       0.10021997       0.02075901      -0.03305042
Mg       4.39847390      -6.08135008       2.49452129       1.00000000      -0.13649249      -0.06641081      -0.06031425
Mg       8.48835556      -8.90867965       7.84655923       1.00000000       0.01242923       0.04666439       0.00890094
Mg       5.90621902      -8.64505828       8.92211737       1.00000000       0.13348009      -0.30135336      -0.08064958
Mg       8.17201853      -9.04725216       5.12979228       1.00000000       0.14613159      -0.10614208       0.02077527
Mg       2.72017636      -4.42191099       3.88116129       1.00000000      -0.18592222      -0.02249645      -0.19992956
Mg       4.97523878      -4.87885084       0.16095920       1.00000000      -0.10939248       0.17832979       0.00076413
Mg       6.50148170      -7.42664347       6.53442841       1.00000000       0.01475444      -0.08346251      -0.03916277
Mg       3.99493746      -7.10021834       7.61498667       1.00000000      -0.09638055      -0.01482132       0.12515829
Mg       2.99553256      -3.43455271      -1.21081495       1.00000000       0.11015435       0.03147819      -0.14185144
Mg       8.82966127      -7.83992516       2.66596666       1.00000000      -0.00037557      -0.11938894       0.07078535
Mg       6.32840763      -7.53143419       3.78141277       1.00000000       0.09493573       0.06989257      -0.05974669
Mg      10.16879281     -13.15532369       9.23399208       1.00000000      -0.04178359      -0.13206792      -0.01221218
Mg       9.76492864     -11.59494027      11.56406100       1.00000000      -0.11625482      -0.06287135      -0.00732293
Mg       7.88954178     -10.14804458      10.19067332       1.00000000      -0.00627858      -0.03065476       0.03488829
16
Lattice="3.702575700210888 3.2139482839547653 -3.589625965491266 -2.901788468589183 9.39768757786232 -2.201700849062432 1.7415699327011642 11.57479897331508 -0.6508323833440678" Properties=species:S:1:pos:R:3:masses:R:1:momenta:R:3 ns_energy=-26975.161404450075 volume=232.63522900724845 committee_std=0.0016117855998164887 KEmax=76.970702383392 last_walked_iter_clone=116691 last_walked_iter_extra=117067 iter=117079 ns_P=0.24968 config_type=mg16_hole config_n_global=117079 ns_KE=0.19497623096793903 temp=59.38595549925115 pbc="T T T"
Mg       1.39875494      14.63257189      -2.63031874       1.00000000       0.09694319       0.05928681      -0.07671082
Mg      -0.72280863      11.00317684      -3.12527510       1.00000000       0.10554035      -0.07893151       0.07802105
Mg       1.27939127      10.03376465      -4.54799752       1.00000000       0.01980209      -0.11860766       0.18259020
Mg       1.73777491       9.53401030      -2.00726589       1.00000000       0.06866483      -0.00065588       0.02527321
Mg       1.56099082      12.10515619      -2.33395842       1.00000000      -0.03246262       0.09133682       0.01783330
Mg       3.35634001      16.40606069      -4.45297415       1.00000000       0.01082513       0.20044031       0.01955855
Mg       3.45639087      13.79159462      -4.13371148       1.00000000      -0.20333367       0.18946185       0.02407928
Mg       1.17140416      12.67056821      -4.89570059       1.00000000       0.06756847       0.18550519      -0.09474060
Mg       1.23122709      17.39962084      -3.12295856       1.00000000       0.05319280       0.04536996      -0.04351185
Mg       3.14292991      19.04252461      -4.81457329       1.00000000      -0.02179060       0.05344981      -0.01136868
Mg       1.00515342      15.26290228      -5.15617738       1.00000000      -0.02880004      -0.03394765      -0.12933794
Mg      -0.87196803      13.65738400      -3.42654829       1.00000000       0.04791731       0.12868538      -0.02937554
Mg       3.63864007      11.13441135      -3.68555781       1.00000000       0.02419331       0.05653456      -0.03904485
Mg      -0.58520754       8.41154639      -2.67909538       1.00000000       0.13783146       0.00823664       0.00902286
Mg       3.73911775       8.49022960      -3.48348345       1.00000000      -0.13941468       0.06671876      -0.06459774
Mg       1.85308909       6.88327644      -1.57235642       1.00000000      -0.05774560      -0.07902977       0.08727403
16
Lattice="-4.800295803138197 -6.643030596774348 -3.914165376403098 -0.8972071387027091 7.8516179925661165 0.7845749853883915 -0.44389965997179437 -6.25896548483978 -6.425861285264608" Properties=species:S:1:pos:R:3:masses:R:1:momenta:R:3 ns_energy=-26968.060595783238 volume=223.60915470601435 committee_std=0.0017951674737965995 KEmax=76.970702383392 last_walked_iter_extra=117917 last_walked_iter_clone=117753 iter=117929 ns_P=0.28089 config_type=mg16_hole config_n_global=117929 ns_KE=0.19753900209005484 temp=59.39404216761459 pbc="T T T"
Mg      -3.09763041      -2.01223593      -3.24151101       1.00000000       0.01977445      -0.02755370       0.00826564
Mg      -0.74354644      -5.46317060      -6.29281725       1.00000000       0.03180499       0.10835959       0.05907280
Mg      -1.67548698      -0.62557788      -1.53943408       1.00000000      -0.10292205      -0.00563920       0.11207489
Mg      -4.32456584     -10.51209011      -8.50765828       1.00000000       0.03008273      -0.12753904       0.05540774
Mg      -5.20446867      -0.68688899      -3.93555360       1.00000000      -0.07850396      -0.13222415      -0.15898073
Mg      -2.23455086      -4.79105934      -4.17311521       1.00000000      -0.08842983      -0.06193445      -0.10688097
Mg      -1.02008131       1.63020892      -2.70848553       1.00000000       0.04458508      -0.07127307      -0.11019538
Mg      -1.59128945      -2.56401881      -5.32924381       1.00000000       0.02363134      -0.05061007       0.09344562
Mg      -3.76259543      -1.29069131      -6.05419795       1.00000000      -0.04251177       0.11170234       0.11370355
Mg      -3.56513435      -6.29620859      -5.82630035       1.00000000       0.03392504       0.00432723      -0.08987725
Mg      -2.93862337      -4.05724863      -6.96765187       1.00000000      -0.01886740       0.06880148      -0.00677675
Mg      -4.95566956      -7.78144250      -7.55433685       1.00000000       0.00923033       0.04187367      -0.15213836
Mg      -3.81859191       0.73607599      -2.26244448       1.00000000       0.06345211      -0.31370314       0.01504769
Mg      -4.43499233      -3.54425799      -4.85885831       1.00000000       0.10230952       0.01842196      -0.06964793
Mg      -2.33862423       0.19832573      -4.37924225       1.00000000       0.12818364      -0.06433608       0.04435570
Mg      -1.73715393       4.49279323      -1.63895690       1.00000000       0.12211057      -0.05245379      -0.07762921
16
Lattice="-0.8858061957173429 2.3523416323462456 -4.469478842826714 -8.55219534381239 1.4591805232495887 1.500210100515999 2.6433066926397704 3.1782487501006456 3.0628672970541317" Properties=species:S:1:pos:R:3:masses:R:1:momenta:R:3 ns_energy=-26947.86045087535 volume=209.93467286745 committee_std=0.0017790950811090755 KEmax=76.970702383392 last_walked_iter_extra=120172 last_walked_iter_clone=119484 iter=120189 ns_P=0.37452 config_type=mg16_hole config_n_global=120189 ns_KE=0.22493541297267863 temp=56.39549124651831 pbc="T T T"
Mg      -4.23912000       1.10030690       0.74248694       1.00000000       0.01598965      -0.13593568      -0.20855012
Mg      -2.91733748       2.70093320       2.28574187       1.00000000      -0.06743925       0.19965711       0.16318710
Mg      -3.34778280       3.83750131       0.04400981       1.00000000       0.10179785      -0.05496683       0.07255749
Mg       0.78029455       1.18729470       0.74966008       1.00000000       0.01123199       0.07676650      -0.10283586
Mg       2.06259068       2.81975213       2.28186860       1.00000000      -0.06667725      -0.09130852      -0.03458470
Mg       1.55840813       3.98192852       0.05354475       1.00000000      -0.04659738       0.13808969       0.05635158
Mg      -1.09061624       4.49647275      -1.07981568       1.00000000      -0.06156105       0.08002079       0.02593546
Mg      -2.43382318       2.94520120      -2.69878621       1.00000000      -0.05360878      -0.06172750      -0.08876144
Mg      -2.03277276       1.72400784      -0.41653530       1.00000000      -0.03659766      -0.06636897      -0.15448229
Mg      -5.56441492       3.34383483       1.18275358       1.00000000      -0.07198780       0.04129268       0.14168179
Mg      -6.01593887       4.39324573      -1.15903648       1.00000000       0.08775773       0.03896346       0.04597422
Mg      -4.64807942       2.24111856      -1.51069988       1.00000000       0.09635793       0.03025562      -0.19271988
Mg       0.24868058       2.29339241      -1.45051064       1.00000000      -0.10035614       0.02907998      -0.08819611
Mg      -4.15425278       4.86596352       2.72510172       1.00000000       0.07155284       0.03859737      -0.11026846
Mg      -0.68493771       3.26078767       1.14721305       1.00000000      -0.20099889      -0.06596068       0.01333461
Mg      -4.71040712       5.92024670       0.47171767       1.00000000      -0.02951441      -0.12153132      -0.06524627
16