16
Lattice="4.687878901710652 13.803750282119111 3.00190820614169 -2.205056313998151 4.603077955286151 5.2238766201036135 3.9373023436334846 2.4120915220219787 4.855487547497668" Properties=species:S:1:pos:R:3:masses:R:1:momenta:R:3:dft_forces:R:3 ns_energy=-27040.264255815015 volume=407.0400873736982 committee_std=0.0026247390025230686 KEmax=76.970702383392 last_walked_iter_extra=64705 last_walked_iter_clone=64713 iter=64729 ns_P=0.0 config_type=mg16_0GPa config_n_global=64729 ns_KE=2.403283146106794 temp=999.7962342607423 dft_energy=-27042.679235 dft_stress="0.98831 -0.205328 0.379076 -0.205328 0.160285 1.323624 0.379076 1.323624 1.382825" dft_virial="-2.5108454556741195 0.521644904658109 -0.9630594165344097 0.521644904658109 -0.40721116235060484 -3.3627255673029723 -0.9630594165344097 -3.3627255673029723 -3.513128337508033" pbc="T T T"
Mg       3.93996126      10.73927356       8.82498379       1.00000000       0.78541382       0.03421576       0.33903263       0.11095000       0.04264000      -0.25334000
Mg       3.37909448       6.06881105       7.25908891       1.00000000       0.22405156      -0.04896317       0.07307133      -0.17647000       0.24905000      -0.58614000
Mg       3.39465064      16.95556936       8.14821139       1.00000000      -0.08635424       0.08401420       0.39740363       0.01333000      -0.38379000       0.28616000
Mg       2.16001092       9.57009564       6.40566334       1.00000000       0.37793689      -0.07907309       0.14766652       0.46596000       0.58819000      -0.01580000
Mg       4.65611646      11.59548989       5.68882315       1.00000000      -0.16436869      -0.27520589      -0.06612863      -0.40966000      -0.42927000       0.12365000
Mg       6.28062085      15.56142866       7.76217174       1.00000000       0.01096214       0.14431258      -0.07072800       0.19216000       0.13833000       0.12276000
Mg       5.30385876      18.28806067      10.56668206       1.00000000      -0.07408749      -0.22049629      -0.65648810      -0.12508000       0.08676000      -0.22629000
Mg       2.82310603       9.96719789       3.13357252       1.00000000       0.51918688      -0.26009903       0.30276176      -0.97527000       0.98531000       0.12622000
Mg       0.28093493       7.61029840       6.82523408       1.00000000      -0.26573517      -0.06942331       0.14696706      -0.44210000      -0.86143000       0.42750000
Mg       1.90259112       8.38099512       9.64662710       1.00000000      -0.10517846      -0.09004509      -0.26339063       0.73818000       0.13895000       0.03752000
Mg       3.09715986       7.49214273       4.36570635       1.00000000       0.05968537       0.44012400      -0.51386443       0.14122000      -0.72043000      -0.06335000
Mg       5.31313537       8.37331047       6.35068107       1.00000000       0.27160388       0.05738690       0.29572190      -0.02536000       0.44263000      -0.33067000
Mg       3.23810973      13.78477359       8.30529100       1.00000000       0.37154522       0.00226398      -0.44140770       0.77308000      -0.28554000       0.70731000
Mg       1.58634425       4.90787774       4.15981287       1.00000000       0.10392910       0.07021661       0.48693237      -0.77856000       0.09850000       0.66565000
Mg       4.20138021      14.44984712       5.79692758       1.00000000      -0.24518554       0.05756789      -0.00976854       0.22940000       0.31319000      -0.87294000
Mg       5.29339317      15.19971037      10.81663520       1.00000000       0.16547588       0.94863713       0.48713694       0.26821000      -0.40310000      -0.14823000
16
Lattice="-0.5745978126207487 4.861611041898021 -3.0249685122245915 -7.431959440414001 -2.895323098420258 -7.257934665361115 -1.2492709479509416 6.499744903357303 5.096153395440928" Properties=species:S:1:pos:R:3:masses:R:1:momenta:R:3:dft_forces:R:3 ns_energy=-27041.378559199176 volume=366.6482629772019 committee_std=0.0033384740881259624 KEmax=76.970702383392 last_walked_iter_extra=69415 last_walked_iter_clone=69224 iter=69479 ns_P=0.0 config_type=mg16_0GPa config_n_global=69479 ns_KE=2.1283818958811658 temp=814.4591689803661 dft_energy=-27043.435262 dft_stress="-3.044403 -0.545458 0.015396 -0.545458 -0.798023 -0.820855 0.015396 -0.820855 -2.08449" dft_virial="6.966928971883438 1.248247076075538 -0.03523279882824889 1.248247076075538 1.8262265406154627 1.8784761679762434 -0.03523279882824889 1.8784761679762434 4.7702271258441495" pbc="T T T"
Mg      -4.59805024       2.17166017      -1.55406345       1.00000000       0.07527623       0.26724540      -0.28895011      -0.89456000       0.94300000      -0.57995000
Mg      -0.84049731       6.11555298      -2.03941078       1.00000000      -0.39039108       0.23633685      -0.33478520      -0.39192000       0.00836000      -0.19421000
Mg      -1.21798766       3.87216954       2.24288864       1.00000000       0.04442789      -0.31276350      -0.05112693      -0.25482000       0.10472000      -0.66816000
Mg      -6.17806345       5.67977247      -0.60027545       1.00000000      -0.62402084      -0.37436128       0.22029228       0.40051000      -0.22108000      -0.07077000
Mg      -8.49231359       6.98147431      -5.33999026       1.00000000      -0.24643097      -0.08656592       0.21447653       0.24525000      -0.08782000      -0.17289000
Mg      -6.94040543       4.89794846      -3.50761418       1.00000000       0.09156524       0.37570471      -0.51376186       1.04604000      -0.09571000       0.05267000
Mg      -6.67933851       1.22488495      -7.68741842       1.00000000      -0.17777633       0.04354377      -0.38989425       0.26871000      -0.16694000       0.44953000
Mg      -5.12256950       8.33599608      -1.92076040       1.00000000       0.52142525      -0.28663677       0.36920769       0.48177000      -0.19735000       0.33872000
Mg      -5.86448494       1.77044343      -4.59114131       1.00000000      -0.23051219      -0.34866389       0.25010440       0.38037000       0.42087000       0.20011000
Mg      -3.94048497       5.26980504      -2.84765104       1.00000000       0.16060937       0.00511387       0.55248838       0.56132000      -0.45051000       0.51414000
Mg      -3.85862131      -0.23352568      -2.87140632       1.00000000      -0.05011162      -0.10147298      -0.40258823      -0.15998000      -0.46787000       0.21468000
Mg      -2.00441663       7.12894712       3.21942836       1.00000000       0.08305357      -0.23322655       0.32127542      -1.29111000      -0.62528000      -0.42735000
Mg      -7.67118149       3.78945438      -6.42724280       1.00000000       0.14683844      -0.63569105      -0.13441559       0.61827000       0.30256000       0.35241000
Mg      -1.97027941       3.26328651      -1.00339974       1.00000000       0.39612530      -0.22599173       0.00869985      -0.12028000      -0.02824000       0.24083000
Mg      -2.90057597       5.78973171       0.23556666       1.00000000       0.23460521      -0.15337568       0.05889087      -0.37638000       0.38148000      -0.12912000
Mg      -2.59100996       2.34573205      -3.89231335       1.00000000       0.44439145      -0.10147165      -0.20602491      -0.51320000       0.17980000      -0.12063000
16
Lattice="7.181687424815192 3.8664105873658654 9.920961983857358 -3.1268610853484815 -0.823561615962785 5.40787014906447 7.211015554568529 -1.719543272471024 9.104758936350443" Properties=species:S:1:pos:R:3:masses:R:1:momenta:R:3:dft_forces:R:3 ns_energy=-27042.265869200473 volume=386.0423855692806 committee_std=0.0020407466577258954 KEmax=76.970702383392 last_walked_iter_extra=74217 last_walked_iter_clone=74120 iter=74219 ns_P=0.0 config_type=mg16_0GPa config_n_global=74219 ns_KE=1.5900526816732987 temp=640.916326619642 dft_energy=-27043.838866 dft_stress="0.069976 -1.77239 0.580071 -1.77239 0.509439 -0.390996 0.580071 -0.390996 0.455041" dft_virial="-0.16860626738584836 4.270550792443178 -1.3976735756370249 4.270550792443178 -1.2274866847316108 0.9420998074024977 -1.3976735756370249 0.9420998074024977 -1.0964154069612986" pbc="T T T"
Mg       6.81917806      -0.48572744       9.00233068       1.00000000       0.25335490      -0.13318508       0.07075763       0.01430000      -0.10471000       0.14960000
Mg       6.84352568      -0.19842665      14.56188347       1.00000000       0.03329242      -0.28671289       0.07158695      -0.49185000      -0.67540000      -0.29006000
Mg       9.59942138       1.97193463      20.11760953       1.00000000      -0.37698734      -0.19034680       0.27754210       0.06343000      -0.19759000       0.02004000
Mg       2.54324318       0.17024779       5.45868475       1.00000000       0.19505766      -0.03581213       0.32290248       0.21255000      -0.17937000      -0.83184000
Mg       0.89951172      -0.14029774       7.68478363       1.00000000       0.22207853       0.45241110       0.12359334       0.04718000      -0.42670000       0.71810000
Mg       8.95424095       1.07720137      16.07124945       1.00000000      -0.29426085       0.09958180      -0.42841075       0.10282000       0.05307000       0.43296000
Mg       7.33947488       0.49625209      18.87686761       1.00000000       0.19472466       0.21949918      -0.02419901      -0.02528000       0.05608000      -0.19628000
Mg       8.43203524      -0.43036852      11.86487083       1.00000000      -0.32739022      -0.37806896      -0.18256067      -0.54739000       0.64231000      -0.00586000
Mg       3.23111598       0.99430362       9.50497814       1.00000000      -0.45809711       0.01898802       0.22931246      -0.00877000       0.05083000      -0.02616000
Mg       5.91044342       2.08624525      10.53802431       1.00000000      -0.03157517      -0.11154906       0.10494617      -0.06551000       0.06888000       0.14097000
Mg       4.91966235      -0.99207651      11.66791470       1.00000000      -0.09584520      -0.37422032      -0.14828952       0.39104000       0.14997000      -0.23005000
Mg       4.89349830       1.20031441       6.87077834       1.00000000      -0.14564651      -0.21077312       0.05102791       0.31820000       0.53010000       0.03923000
Mg       7.29344108       2.54662798      13.65362125       1.00000000       0.39198867       0.14954456       0.52613866       0.09765000       0.18898000       0.10529000
Mg       4.47483213       1.58325035      13.27518907       1.00000000      -0.11709829       0.07037420      -0.46326923      -0.29917000       0.17960000       0.14893000
Mg       5.73956780       1.92936122      16.46707608       1.00000000      -0.17819603       0.22024813      -0.23695070       0.19288000      -0.05207000      -0.41888000
Mg      11.39230296       2.28457796      17.49787668       1.00000000       0.52704046       0.01823902      -0.24283017      -0.00207000      -0.28399000       0.24401000
16
Lattice="-0.421017828808034 13.307526320591617 2.7480227580779215 -3.733226600252466 -1.6709939638002445 3.8717067947430848 3.9788679717569284 9.305075079564606 4.995600321966522" Properties=species:S:1:pos:R:3:masses:R:1:momenta:R:3:dft_forces:R:3 ns_energy=-27042.948615735546 volume=394.6763559613673 committee_std=0.002825610833705062 KEmax=76.970702383392 last_walked_iter_extra=78967 last_walked_iter_clone=78822 iter=78969 ns_P=0.0 config_type=mg16_0GPa config_n_global=78969 ns_KE=0.9098371486060347 temp=502.9078942205334 dft_energy=-27043.84998 dft_stress="0.895672 0.160442 0.243923 0.160442 0.719601 0.987893 0.243923 0.987893 1.345902" dft_virial="-2.206376978089467 -0.3952289846267721 -0.6008740829528187 -0.3952289846267721 -1.772647888747397 -2.4335519833328916 -0.6008740829528187 -2.4335519833328916 -3.3154627894637425" pbc="T T T"
Mg      -0.34310098      12.49680174       9.23307254       1.00000000      -0.29251426      -0.39180252      -0.06581086      -0.50668000       0.14364000      -0.44374000
Mg       0.30880863      17.19361856       7.43041830       1.00000000      -0.12622991       0.11036382       0.26298592       0.46283000       0.50545000      -1.00011000
Mg       0.50306369      12.80807598       3.73718562       1.00000000       0.00303136      -0.01809199       0.34475699       0.22861000       0.14467000      -0.51690000
Mg       0.03256342       6.31526815       6.40604727       1.00000000      -0.16367065      -0.19808931      -0.26654029       0.49534000       0.33300000       0.19840000
Mg       1.15930522       8.28680369       4.11239408       1.00000000      -0.11567879      -0.26481550       0.18466740      -0.28175000       0.19855000       0.18708000
Mg       2.76770444      19.47808032       7.91863324       1.00000000      -0.14224043      -0.30493646      -0.06424522      -0.16302000       0.00742000       0.17551000
Mg      -2.07482145       8.36204667       5.43912844       1.00000000      -0.07763433       0.02244380       0.01442087       0.10298000       0.25635000      -0.01079000
Mg      -0.98974377       6.31409935       3.16347278       1.00000000       0.26447741       0.08498531      -0.03849017      -0.58387000      -0.32344000       0.40482000
Mg       2.76518751      10.90754928       4.81649066       1.00000000      -0.06633197      -0.19481999      -0.00571928       0.12262000      -0.06011000      -0.47906000
Mg       0.33748070      14.17811704       6.51336370       1.00000000       0.32314445       0.39216488       0.33723414      -0.30180000       0.23924000       0.10573000
Mg      -1.67866529       2.86538878       2.48616657       1.00000000      -0.15896645       0.03519791       0.21814211       0.28349000       0.04206000       0.51359000
Mg      -1.98267896      -0.26118760       2.17532241       1.00000000      -0.14733565      -0.50643029      -0.01813916      -0.13763000      -0.25124000       0.11043000
Mg      -0.38230235      15.70513669       9.58632218       1.00000000       0.14749898       0.03973721      -0.01975641       0.12697000      -0.76410000       0.53614000
Mg      -2.42301071       1.14934723       5.09627518       1.00000000       0.02770540      -0.00973261      -0.12035963       0.42175000      -0.28912000       0.23874000
Mg      -2.02851706       4.27746962       5.91579570       1.00000000       0.12208327      -0.15244290       0.10993565      -0.16563000       0.04954000      -0.22071000
Mg      -0.25616829      11.01464158       6.01547911       1.00000000       0.13356624      -0.14624582      -0.08316328      -0.10424000      -0.23192000       0.20085000
16
Lattice="11.829685111702869 0.9582030009577142 -4.872962392693749 -9.793363400265067 -0.5779310101595012 9.783136149598866 -2.3957368306392492 -5.813167764604076 1.3729308672943341" Properties=species:S:1:pos:R:3:masses:R:1:momenta:R:3:dft_forces:R:3 ns_energy=-27043.495796158168 volume=383.1321704765447 committee_std=0.0020630131009712976 KEmax=76.970702383392 last_walked_iter_extra=83713 last_walked_iter_clone=83687 iter=83719 ns_P=0.0 config_type=mg16_0GPa config_n_global=83719 ns_KE=1.0157727959692133 temp=391.3812600376551 dft_energy=-27044.579531 dft_stress="1.011004 -0.146357 0.320104 -0.146357 0.481801 0.210064 0.320104 0.210064 1.080956" dft_virial="-2.4176370560635045 0.349986851302553 -0.765472037889219 0.349986851302553 -1.1521417830675769 -0.5023308617423117 -0.765472037889219 -0.5023308617423117 -2.584914878253876" pbc="T T T"
Mg      -1.91404171      -1.89045682       1.82495939       1.00000000      -0.12063387      -0.00946247       0.06110222       0.09004000       0.12654000      -0.06386000
Mg       3.82385844      -2.43790745       2.29940703       1.00000000       0.34902581       0.25069430       0.07879742      -0.07769000       0.46825000       0.31271000
Mg      -2.28268919      -2.80585031       4.83489045       1.00000000      -0.14457587      -0.01273274       0.07354168       0.18137000       0.12043000      -0.01693000
Mg       2.83346910      -4.27720892       0.04546548       1.00000000      -0.03196031      -0.32852256       0.15608958      -0.04389000       0.06544000      -0.19850000
Mg       2.60825630      -5.07849764       3.04655630       1.00000000       0.25497027      -0.03002802       0.09751911       0.09230000      -0.26316000       0.26418000
Mg       2.14993465       0.23849257       2.67601117       1.00000000      -0.12213210       0.09241998       0.26242724      -0.19921000       0.13398000       0.72950000
Mg      -5.14699686      -2.76816894       5.98079974       1.00000000      -0.24629267      -0.30891429      -0.02479418       0.11028000      -0.08107000       0.10642000
Mg       6.92343715      -0.80926909      -1.94113337       1.00000000      -0.06025020      -0.26126034       0.13727627       0.20287000      -0.39879000      -0.18074000
Mg       4.01699413      -1.47724449      -0.55455064       1.00000000      -0.07605325       0.71095200      -0.22382897      -0.00417000       0.37158000      -0.34040000
Mg       0.77703657      -2.53141078       3.59595450       1.00000000       0.20298670      -0.37690049      -0.11011609       0.06493000       0.07133000       0.26083000
Mg       1.03092982      -1.54686577       0.51723794       1.00000000      -0.01826644       0.09898048       0.02649900       0.05123000      -0.29387000      -0.20163000
Mg      -6.17599339      -5.73285703       6.50439807       1.00000000       0.14552577       0.15253129      -0.06530120      -0.05211000      -0.11137000       0.26989000
Mg      -2.99187126      -4.79575062       2.38917885       1.00000000       0.09375355      -0.30487315       0.09047926       0.08192000       0.09806000       0.01171000
Mg      -3.19809976      -5.69476251       5.56236228       1.00000000       0.00802377       0.34780473       0.26341935      -0.15200000       0.01315000      -0.13694000
Mg       5.98401821      -3.75275897      -1.31106876       1.00000000       0.05345989       0.10463881      -0.29240245      -0.08919000      -0.29486000      -0.04348000
Mg       0.05074829      -4.46534843       1.43504247       1.00000000      -0.07899943       0.14876461      -0.05516044      -0.25667000      -0.02565000      -0.77275000
16
Lattice="5.584653333473069 6.496195888113451 7.273134172581919 1.7539323885815765 -2.5189235932630463 5.57120950852602 10.548597342081694 5.514786150498261 3.7601178351611786" Properties=species:S:1:pos:R:3:masses:R:1:momenta:R:3:dft_forces:R:3 ns_energy=-27043.914566525837 volume=378.0562547351049 committee_std=0.001729941640795297 KEmax=76.970702383392 last_walked_iter_extra=88457 last_walked_iter_clone=88221 iter=88459 ns_P=0.0 config_type=mg16_0GPa config_n_global=88459 ns_KE=0.4696076089843839 temp=296.5778918177097 dft_energy=-27044.398959 dft_stress="0.487847 -0.394013 0.556524 -0.394013 0.273607 0.667077 0.556524 0.667077 -0.024183" dft_virial="-1.1511440580855885 0.9297294515667351 -1.3131971617782299 0.9297294515667351 -0.645614449408572 -1.5740626156060409 -1.3131971617782299 -1.5740626156060409 0.05706321194285051" pbc="T T T"
Mg       3.93223573       2.34801550       2.07117348       1.00000000      -0.10409482      -0.15812420      -0.13228709      -0.00643000      -0.17068000       0.02177000
Mg       3.97529742       4.20499890       5.21117827       1.00000000       0.06991332       0.20339663      -0.10210146       0.24153000      -0.07739000      -0.09736000
Mg       9.57606859       6.87591690       6.76575972       1.00000000      -0.30773482      -0.00714275       0.10728928      -0.26603000       0.16276000       0.11602000
Mg      10.25908142       3.91957864       7.16583117       1.00000000      -0.07432812       0.01841265       0.05562137      -0.35579000      -0.35907000      -0.23768000
Mg       8.84636951       5.03507320       4.33442654       1.00000000       0.04512677      -0.10054302      -0.02914888       0.48507000      -0.17300000       0.05944000
Mg       7.85165490       3.61564236       9.25693909       1.00000000      -0.30020087       0.00965707      -0.23032849      -0.11039000      -0.16844000       0.07696000
Mg       6.82293451       4.66493436       6.59545668       1.00000000      -0.12146152      -0.09028769      -0.00513789       0.01866000       0.44925000      -0.11883000
Mg       4.89547271       2.93323511       8.11204796       1.00000000       0.20790394      -0.02649777      -0.00069095       0.22280000      -0.06859000      -0.41170000
Mg       2.56007271      -1.32465330       4.77906381       1.00000000       0.13513276      -0.01975420       0.27781452      -0.06842000       0.30116000       0.00637000
Mg      13.15985969       6.52002206      10.90900478       1.00000000       0.33283131       0.12320410       0.10329788      -0.09471000      -0.17478000       0.11967000
Mg       4.73123177       1.06410202       4.98593076       1.00000000       0.15367691      -0.04919451      -0.17419116       0.11052000      -0.09089000      -0.16264000
Mg       1.73319033       0.11657094       1.99759195       1.00000000      -0.00039153      -0.00671972       0.17171461      -0.01735000       0.11034000      -0.37149000
Mg       6.53863634       3.06594487       3.44772812       1.00000000       0.10395565       0.21074711      -0.07829251       0.02539000      -0.01802000       0.25194000
Mg      12.46402081       7.54599750       8.04678078       1.00000000       0.13497522      -0.16154770       0.06102506      -0.42673000       0.23817000       0.27387000
Mg       7.46781413       1.81590567       6.20975963       1.00000000      -0.02889262       0.15957315      -0.01297144       0.07357000      -0.08992000       0.39640000
Mg      10.26538218       5.67382157       9.64934568       1.00000000      -0.18802735       0.00192258      -0.03565470       0.16832000       0.12909000       0.07726000
16
Lattice="8.460478500698022 -8.21067241511505 -4.806123914080474 8.097284114771583 -13.191183170968817 -1.288576042191052 -6.948884734961055 4.028528989052902 -2.484603938170047" Properties=species:S:1:pos:R:3:masses:R:1:momenta:R:3:dft_forces:R:3 ns_energy=-27044.225556263304 volume=366.2755907765149 committee_std=0.0020272402238468647 KEmax=76.970702383392 last_walked_iter_extra=93202 last_walked_iter_clone=93032 iter=93209 ns_P=0.0 config_type=mg16_0GPa config_n_global=93209 ns_KE=0.4667489721231613 temp=223.0144436910515 dft_energy=-27044.715536 dft_stress="-1.284585 -0.209387 0.134126 -0.209387 -0.308074 0.068985 0.134126 0.068985 -0.130927" dft_virial="2.9367057518459667 0.47868222598097543 -0.30662711745201143 0.47868222598097543 0.7042918045860681 -0.15770746684033676 -0.30662711745201143 -0.15770746684033676 0.2993138437487101" pbc="T T T"
Mg       2.20359043      -3.12192494      -1.08220335       1.00000000      -0.25795809      -0.04850365      -0.26586123      -0.17383000       0.28473000      -0.20585000
Mg       7.67592973     -12.08550824      -5.31081077       1.00000000      -0.15189903       0.11132181       0.07520561       0.29822000      -0.13790000      -0.33479000
Mg       8.60172305      -9.16205707      -4.76349218       1.00000000      -0.17480670      -0.23406447       0.08247364      -0.19636000      -0.14534000       0.01712000
Mg       5.75742117     -10.02304587      -4.03404040       1.00000000       0.14222418      -0.04502755       0.07290595      -0.37214000       0.04339000      -0.17907000
Mg       3.33664105      -8.17741405      -2.98750793       1.00000000       0.17071606      -0.14074017       0.03526483       0.52536000       0.24047000       0.17515000
Mg       4.04156648      -6.20595587      -5.24201163       1.00000000       0.06121494      -0.11036518       0.03784806      -0.27406000       0.25882000      -0.44461000
Mg      -2.33939174       0.11307589      -2.04141574       1.00000000       0.05268744      -0.11866894       0.15430163      -0.07647000      -0.10019000       0.75302000
Mg      -1.12177098      -4.88598875      -3.64465210       1.00000000       0.16518584      -0.06027528       0.05714775       0.11532000       0.02191000       0.09883000
Mg       1.10448875      -7.22650442      -4.86536671       1.00000000       0.13769647      -0.03012910      -0.16783973       0.05137000       0.36707000       0.09543000
Mg       1.88137602      -3.92548875      -4.25235234       1.00000000       0.15112315      -0.08506436      -0.05178661      -0.12915000      -0.42702000       0.26386000
Mg       9.72821532     -14.30487006      -6.57768547       1.00000000       0.09599717       0.16685561      -0.08195376       0.26402000       0.44940000      -0.06965000
Mg       5.29128392     -11.12014705      -7.07118560       1.00000000      -0.16874314      -0.37400779       0.01010445      -0.00837000      -0.19459000      -0.13377000
Mg       3.25997867      -9.20324918      -5.97544413       1.00000000       0.01226601       0.09356416      -0.06874655      -0.06979000       0.02749000       0.00671000
Mg      -0.28678731      -1.91846518      -2.97118146       1.00000000      -0.02452400      -0.09717605       0.10527129       0.25857000      -0.18998000       0.05106000
Mg       6.39537998      -6.90334896      -3.71563051       1.00000000      -0.16679247      -0.14226075      -0.25444102       0.09133000      -0.52602000       0.25684000
Mg       4.36828121      -5.10913449      -2.27932062       1.00000000      -0.10672066       0.03183679      -0.19414263      -0.30400000       0.02775000      -0.35028000
16
Lattice="5.833953089321528 -5.643689095332679 -1.8576381926766865 0.2911675691834581 -11.04333644380542 0.9713476428872214 -4.865540944900503 5.279972853714472 -4.3655810153680115" Properties=species:S:1:pos:R:3:masses:R:1:momenta:R:3:dft_forces:R:3 ns_energy=-27044.465163545283 volume=367.7951678397141 committee_std=0.002176382976992104 KEmax=76.970702383392 last_walked_iter_extra=97947 last_walked_iter_clone=97932 iter=97959 ns_P=0.0 config_type=mg16_0GPa config_n_global=97959 ns_KE=0.4138007454589168 temp=173.7171689985782 dft_energy=-27044.915551 dft_stress="0.326013 -0.462818 0.062095 -0.462818 -0.562311 -0.435455 0.062095 -0.435455 -0.450067" dft_virial="-0.7483944310275676 1.0624435644569905 -0.14254508928986517 1.0624435644569905 1.2908393864831853 0.9996291465773129 -0.14254508928986517 0.9996291465773129 1.0331724084293703" pbc="T T T"
Mg       1.89571051      -4.27090322      -4.38152132       1.00000000      -0.10972595      -0.15305709      -0.01123524       0.17131000      -0.03222000       0.03709000
Mg       1.69053478      -1.42948505      -2.96693769       1.00000000       0.20651264       0.17871202       0.10081687      -0.05456000      -0.00408000      -0.19822000
Mg       4.40990300      -8.76953637      -1.97875004       1.00000000      -0.09771866      -0.01731815      -0.15655381       0.15747000       0.21921000       0.06610000
Mg      -0.68072497      -0.56623043      -4.96231863       1.00000000       0.11996274      -0.03433191       0.21956390       0.10135000      -0.17693000      -0.11526000
Mg       2.23336717      -9.74192443      -3.86586652       1.00000000       0.13863061       0.08451247       0.21926315      -0.16564000      -0.26915000      -0.06459000
Mg      -0.56497043      -6.20900557      -4.58785124       1.00000000      -0.01826218      -0.17684071      -0.10072577       0.03705000       0.29645000       0.17978000
Mg       1.62328826      -9.67661995      -0.73894604       1.00000000       0.01937755      -0.03631251       0.02284999       0.28890000       0.15334000       0.00461000
Mg      -1.17245964      -0.16812923      -1.82061841       1.00000000       0.06160691      -0.02348476      -0.03283170      -0.26621000      -0.77213000      -0.01552000
Mg      -3.28508776      -7.01173719      -3.29531351       1.00000000       0.06642956       0.05668348      -0.00333489      -0.18333000      -0.07586000       0.09280000
Mg      -0.92678437      -5.96405259      -1.42021271       1.00000000      -0.17373516      -0.05251051       0.02253450      -0.28850000       0.00763000      -0.13981000
Mg      -0.84510446      -3.28421941      -3.19885658       1.00000000       0.30628773      -0.09181797      -0.01789846      -0.04446000       0.07287000      -0.03702000
Mg      -3.47430713      -1.56101288      -3.95237152       1.00000000       0.14649129       0.16441828      -0.09082415       0.12047000       0.16965000       0.35690000
Mg       1.51775281      -4.18296142      -1.22628873       1.00000000       0.03184692       0.04728216      -0.18227653       0.14318000       0.24088000      -0.04366000
Mg       4.62295292     -14.12761484      -1.47167645       1.00000000       0.06089529      -0.01802527       0.32328016      -0.06493000      -0.33519000       0.03147000
Mg      -0.67103955      -8.91153344      -2.69178998       1.00000000       0.04779342      -0.07243445      -0.30089534      -0.17947000       0.39746000      -0.15562000
Mg       1.78299135      -6.98991428      -2.64458244       1.00000000      -0.07216800       0.18486319       0.04932401       0.22735000       0.10809000       0.00096000
16
Lattice="5.966654850445251 -5.221242926973875 -1.904936013548203 0.3144466868829989 -10.995809388892601 -0.4327947437945031 -4.4600614467475435 5.461751475621118 -4.229048422762561" Properties=species:S:1:pos:R:3:masses:R:1:momenta:R:3:dft_forces:R:3 ns_energy=-27044.650409628703 volume=364.69280378899833 committee_std=0.0022661508559670258 KEmax=76.970702383392 last_walked_iter_extra=102695 last_walked_iter_clone=102365 iter=102699 ns_P=0.0 config_type=mg16_0GPa config_n_global=102699 ns_KE=0.2939184662369583 temp=129.79575670237557 dft_energy=-27044.985027 dft_stress="-0.200422 0.049723 0.409759 0.049723 -0.839333 0.374826 0.409759 0.374826 -0.370551" dft_virial="0.4562072631199801 -0.11318115648040022 -0.9327071475625428 -0.11318115648040022 1.9105178611942915 -0.8531914839998087 -0.9327071475625428 -0.8531914839998087 0.8434605859455138" pbc="T T T"