16
Lattice="-3.9479920052493815 1.477732403187663 -3.6514316104179403 0.8472119473640928 6.284852290798357 1.3502452778610745 8.714190520254547 -4.8647252979605655 -6.571509553192891" Properties=species:S:1:pos:R:3:masses:R:1:momenta:R:3:dft_forces:R:3 ns_energy=-27044.80813751459 volume=377.76649046576154 committee_std=0.0012627311437979501 KEmax=76.970702383392 last_walked_iter_extra=108213 last_walked_iter_clone=107986 iter=108219 ns_P=0.0 config_type=mg16_hole config_n_global=108219 ns_KE=0.20780644841946375 temp=-inf dft_energy=-27045.034385 dft_stress="0.952899 -0.320922 -0.074964 -0.320922 1.27977 -0.17912 -0.074964 -0.17912 0.256061" dft_virial="-2.246776705670512 0.756680481286256 0.1767525928392036 0.756680481286256 -3.0174839354600556 0.4223350465471179 0.1767525928392036 0.4223350465471179 -0.6037490752227643" pbc="T T T"
Mg      -1.45419905       5.86503294      -0.91108956       1.00000000      -0.05538671       0.07887668      -0.06721637      -0.06699000      -0.18922000      -0.01957000
Mg       3.74338549       0.71249138      -3.78511465       1.00000000      -0.04144821       0.11400064      -0.21217182      -0.23830000      -0.12942000       0.04227000
Mg       0.27958132       3.51697293       0.50893606       1.00000000      -0.12277157       0.00591011       0.01680262       0.06367000      -0.04580000       0.24334000
Mg      -1.36520349       3.29976938      -4.57938668       1.00000000       0.03082905      -0.07307174      -0.01491798      -0.02095000      -0.05223000      -0.11213000
Mg       1.47504330      -0.19313269      -5.89929642       1.00000000       0.03560918       0.02312476      -0.02615008      -0.06477000      -0.01021000       0.10622000
Mg       3.68517428      -1.81315807      -7.42170793       1.00000000      -0.01033623       0.04561921      -0.09781868       0.07758000       0.00321000       0.02510000
Mg       1.82403194       2.92611224      -5.20967463       1.00000000       0.04179005       0.07290323      -0.04387552       0.08304000       0.00542000       0.09238000
Mg       6.73258777      -2.23796131      -8.11790884       1.00000000       0.13587774      -0.09824824       0.01969187       0.16427000       0.17456000      -0.03508000
Mg       0.31484324       0.96895854      -3.07614242       1.00000000      -0.16614907       0.05019258      -0.10531356       0.26115000      -0.03309000      -0.10025000
Mg       8.57452824      -4.51408915      -6.58829352       1.00000000       0.04508253      -0.17427729       0.21563146       0.08996000       0.01617000      -0.17316000
Mg      -0.89332863       6.45894604      -3.98169597       1.00000000       0.18955279      -0.10575967       0.04438446      -0.06432000       0.04828000       0.02709000
Mg       4.12834636       1.34301036      -6.85478414       1.00000000       0.02739203       0.11399770      -0.04211268       0.07071000      -0.04333000       0.12989000
Mg       4.05963107       3.76723936      -2.96583548       1.00000000      -0.01433526      -0.03373639       0.00284563      -0.00914000       0.06597000      -0.21494000
Mg       5.95451080      -0.93289230      -5.37973393       1.00000000       0.04380593       0.01150795      -0.03459271      -0.13313000      -0.03830000       0.12701000
Mg       0.77669109       4.01527890      -2.45008329       1.00000000       0.22995990      -0.07811613       0.05414701       0.13495000       0.28604000      -0.05799000
Mg       6.45022794       2.20921601      -4.58358347       1.00000000       0.01697612      -0.12908636      -0.01582032      -0.34773000      -0.05806000      -0.08018000
16
Lattice="-7.522800691447705 -4.824563129513446 -6.510941495833086 -0.46748516558012754 2.5813386766158835 7.873253759416422 4.373300859905389 6.913790093584093 -0.6227510686824358" Properties=species:S:1:pos:R:3:masses:R:1:momenta:R:3:dft_forces:R:3 ns_energy=-27042.551590678522 volume=351.4199391529699 committee_std=0.0010839269619963635 KEmax=76.970702383392 last_walked_iter_extra=109157 last_walked_iter_clone=108689 iter=109159 ns_P=0.006242 config_type=mg16_hole config_n_global=109159 ns_KE=0.20126269349718046 temp=17.484093214770606 dft_energy=-27044.968523 dft_stress="-1.884585 0.466559 0.230398 0.466559 -1.930614 0.320248 0.230398 0.320248 -1.720256" dft_virial="4.133631320234278 -1.0233461983074175 -0.50535284368672 -1.0233461983074175 4.234590903399305 -0.7024290032247879 -0.50535284368672 -0.7024290032247879 3.773193610487687" pbc="T T T"
Mg       1.08961378       2.38216338      -0.39830363       1.00000000       0.05547970      -0.01186985      -0.02703540       0.17719000      -0.14903000       0.25918000
Mg       0.84401535       4.25491665      -2.85319729       1.00000000      -0.02716589      -0.05985832      -0.16288807      -0.02142000      -0.16908000      -0.04103000
Mg      -2.06154815       3.00285977      -3.34762043       1.00000000       0.07274066      -0.04905040      -0.10943183       0.06216000      -0.06616000       0.09387000
Mg       2.55417136       6.65507815       2.78132693       1.00000000      -0.15232658       0.06597184       0.01700153      -0.06238000      -0.02354000      -0.21368000
Mg       3.33322854       7.87743681       5.49184637       1.00000000       0.05616513       0.04216015      -0.11353324      -0.23339000       0.11910000       0.17462000
Mg      -5.63571523      -1.24882748      -4.04958863       1.00000000       0.07665746       0.13901831      -0.09756321       0.18792000       0.07263000       0.00637000
Mg      -2.48878979      -0.06652073      -3.56486438       1.00000000      -0.13447860       0.14998989       0.00183234      -0.31437000      -0.00447000      -0.04216000
Mg      -3.94342808       1.21576336       1.57224400       1.00000000      -0.10401525       0.15765931       0.16753335       0.07593000       0.20352000      -0.04261000
Mg      -0.11411244       3.58070462       4.92960621       1.00000000       0.00594879       0.04456984      -0.09791456      -0.06615000       0.26158000      -0.35166000
Mg       1.65758760       5.44292771      -0.02702118       1.00000000      -0.01918198      -0.05360089       0.18455237       0.03634000      -0.03459000      -0.06370000
Mg      -0.93372087       2.42678131       2.06031132       1.00000000      -0.16189947       0.04504872      -0.01007564      -0.06939000      -0.01723000      -0.19405000
Mg      -4.75777320      -0.00571562      -1.29899297       1.00000000      -0.07879721       0.02612287      -0.04682665      -0.01614000      -0.02269000       0.11231000
Mg      -1.96024716       1.19643284      -0.75931145       1.00000000       0.04238766       0.00336904      -0.01575062       0.48119000      -0.16801000      -0.01230000
Mg      -2.91720288       1.74663266      -6.16616752       1.00000000       0.01234725      -0.10305449      -0.14492168      -0.04490000       0.07036000       0.11419000
Mg      -0.43213961       5.58075119       2.22155626       1.00000000       0.09671959       0.13434949       0.07624435      -0.14560000      -0.22713000       0.18133000
Mg      -1.24304412       4.20442887      -0.50919600       1.00000000       0.04994522       0.07666760      -0.03970821      -0.04699000       0.15475000       0.01933000
16
Lattice="5.939354882421703 1.6073010430085017 0.15836363822652133 -1.0940975438980172 3.7817024683162956 -3.680847169217158 0.254802781750205 4.947460932359121 9.292764429571726" Properties=species:S:1:pos:R:3:masses:R:1:momenta:R:3:dft_forces:R:3 ns_energy=-27034.02933471184 volume=330.70873231571903 committee_std=0.0014492901432722396 KEmax=76.970702383392 last_walked_iter_extra=110919 last_walked_iter_clone=110675 iter=110949 ns_P=0.03121 config_type=mg16_hole config_n_global=110949 ns_KE=0.22212412914656587 temp=-inf dft_energy=-27044.588462 dft_stress="-4.681852 -0.117284 0.779679 -0.117284 -5.272689 -0.130864 0.779679 -0.130864 -4.288868" dft_virial="9.663911704295753 0.24208843430476296 -1.609352242166905 0.24208843430476296 10.883471100797603 0.27011920523565447 -1.609352242166905 0.27011920523565447 8.852744952933051" pbc="T T T"
Mg       3.74631880       5.54041841       1.36708840       1.00000000      -0.01101897       0.08414139      -0.02910815      -0.20600000       0.13835000      -0.24084000
Mg       5.76919093       4.17366192       3.19094191       1.00000000       0.17490417      -0.09757205      -0.02865204      -0.00916000      -0.39637000       0.13761000
Mg       2.78591843       3.29744088       3.15947141       1.00000000      -0.01651111      -0.13339066      -0.10663542       0.11273000      -0.13469000      -0.09205000
Mg       1.96495468       6.13056369       3.69271770       1.00000000       0.10401445      -0.06955597       0.04199693       0.03642000       0.08475000       0.25461000
Mg      -0.13800205       2.11199846      -0.01382375       1.00000000      -0.03862134      -0.04664099      -0.10442302      -0.08939000      -0.10992000       0.09990000
Mg      -0.08189018       8.04440551       4.99181321       1.00000000      -0.00273906      -0.00117473      -0.01873161       0.05871000      -0.12240000      -0.13965000
Mg       2.81679778       2.84446890       0.02619583       1.00000000      -0.01546217      -0.25115198       0.08971781       0.16368000       0.18411000       0.26067000
Mg       4.88790427       7.30550520       6.87129032       1.00000000       0.19712216       0.00985962       0.04544833       0.03583000       0.00070000       0.14846000
Mg       2.93818029       8.76024322       5.00343308       1.00000000       0.09649554       0.01433582       0.08148044      -0.17304000       0.05831000       0.08026000
Mg       1.07189446       3.86691335       5.62206676       1.00000000       0.15053836       0.04382687      -0.06555241      -0.15527000      -0.00461000      -0.07756000
Mg       0.80481687       4.39848962      -1.77455252       1.00000000       0.09914925       0.07106958       0.01696896       0.16879000       0.21096000      -0.12211000
Mg       3.96388645       4.72217600       5.64364306       1.00000000       0.12208304       0.02172328      -0.01838766       0.14102000      -0.18204000      -0.01685000
Mg       0.67396646       4.76617977       1.21292106       1.00000000      -0.06514835      -0.15865838       0.17121690       0.34368000       0.10493000      -0.01236000
Mg       5.00767072       6.90181461       3.84092302       1.00000000      -0.11776129       0.14288378       0.07791927      -0.19801000       0.27609000       0.01583000
Mg       3.87163851       5.17269625      -1.72399421       1.00000000      -0.15883707      -0.07560353      -0.04771405      -0.36880000       0.14522000       0.05014000
Mg       1.87228837       6.58399805       6.91136028       1.00000000      -0.08705161       0.00958498       0.07207713       0.13882000      -0.25337000      -0.34605000
16
Lattice="-2.523024483916897 -5.077227523788709 0.5826776519852321 -1.2292521715257776 -3.4100794846153804 6.2088596154398425 -10.039510497031175 0.006071409029025544 2.4589307487509964" Properties=species:S:1:pos:R:3:masses:R:1:momenta:R:3:dft_forces:R:3 ns_energy=-27024.214632081945 volume=302.43520878621695 committee_std=0.0025698719665667776 KEmax=76.970702383392 last_walked_iter_extra=113581 last_walked_iter_clone=113580 iter=113589 ns_P=0.06242 config_type=mg16_hole config_n_global=113589 ns_KE=0.19566323799497773 temp=-inf dft_energy=-27043.303438 dft_stress="-10.736924 -0.07874 -0.187466 -0.07874 -10.302838 -0.372959 -0.187466 -0.372959 -9.970755" dft_virial="20.267577303932555 0.1486337275845158 0.3538705915082402 0.1486337275845158 19.44817394766824 0.7040168453923472 0.3538705915082402 0.7040168453923472 18.821316770154287" pbc="T T T"
Mg     -11.07628005      -3.01746639       4.08680892       1.00000000       0.04120910       0.04304799      -0.22232032       0.24892000       0.14838000       0.12974000
Mg      -3.15314828      -2.56545533       3.73697587       1.00000000      -0.05892044       0.04111412       0.03153092       0.03247000       0.04685000      -0.14309000
Mg     -11.29433630      -4.88902077       6.38632724       1.00000000      -0.07455842       0.05900842      -0.03393143      -0.17588000      -0.04567000       0.34353000
Mg      -9.53047948      -0.64597226       3.05445550       1.00000000      -0.04589230      -0.04474494      -0.08868396       0.07879000      -0.10685000      -0.19993000
Mg      -4.41332824      -0.60110792       1.77805822       1.00000000       0.12626525       0.05584196      -0.15551311      -0.02601000      -0.14832000       0.18485000
Mg      -3.50606649      -4.48686359       5.88847048       1.00000000      -0.13097836       0.16769821      -0.06238906       0.06204000       0.09609000       0.24765000
Mg      -8.11723665      -2.51147838       4.88657010       1.00000000       0.02251324      -0.03107881      -0.13205354      -0.34768000      -0.23375000       0.45493000
Mg      -5.90659540      -2.91174816       3.06548794       1.00000000       0.04426342       0.06873724      -0.15459991      -0.01961000      -0.13261000      -0.42626000
Mg      -8.82360049      -3.44822007       2.21566205       1.00000000      -0.10271613       0.15001826       0.07392078      -0.00049000       0.29846000      -0.27849000
Mg      -9.17864186      -5.29574630       4.49645802       1.00000000       0.08445397       0.06825921      -0.08169831       0.28697000       0.23143000      -0.03730000
Mg      -4.12888940      -5.37778610       3.13851806       1.00000000      -0.01092271       0.04602830      -0.01129863      -0.07393000       0.24123000      -0.07769000
Mg      -5.03841600      -6.77473809       7.07396358       1.00000000       0.06295776      -0.04359072       0.02449537      -0.08376000      -0.02934000       0.20038000
Mg      -6.28798122      -4.83228164       5.17563451       1.00000000      -0.07564546      -0.07056670       0.10418623      -0.26647000      -0.17504000       0.14651000
Mg     -12.91412222      -7.21819175       7.49882901       1.00000000       0.01285891      -0.09080624      -0.02756083       0.28375000      -0.11363000      -0.02728000
Mg      -8.49113686      -4.46171112       7.38252394       1.00000000      -0.10601812      -0.13047154       0.11996888      -0.12278000       0.00648000      -0.37551000
Mg      -7.86336131      -7.12408202       6.43528783       1.00000000       0.11281443       0.12698528      -0.00800690       0.12368000      -0.08371000      -0.14206000
16
Lattice="-4.56780387904865 -6.102808528887807 -8.637410519512441 2.8206290388894395 -4.107301350433747 3.1396291155794898 -6.150484386771453 -7.358350501087842 -3.4861070426566503" Properties=species:S:1:pos:R:3:masses:R:1:momenta:R:3:dft_forces:R:3 ns_energy=-27015.046882251136 volume=284.3742998171748 committee_std=0.0029854983529518336 KEmax=76.970702383392 last_walked_iter_extra=114415 last_walked_iter_clone=114305 iter=114429 ns_P=0.09363 config_type=mg16_hole config_n_global=114429 ns_KE=0.19213572086112796 temp=-inf dft_energy=-27041.889242 dft_stress="-15.512145 -0.472773 0.071672 -0.472773 -14.239003 -0.254233 0.071672 -0.254233 -16.12785" dft_virial="27.532890667415046 0.8391365165491821 -0.1272124093679482 0.8391365165491821 25.273159373638833 0.45124445349427356 -0.1272124093679482 0.45124445349427356 28.62572073368768" pbc="T T T"
Mg      -1.63995010      -7.32885897      -3.66482904       1.00000000      -0.06355220      -0.08704901      -0.07833993      -0.33451000       0.29766000      -0.02717000
Mg      -2.50158413     -10.21068435      -3.77865785       1.00000000      -0.10308218       0.01683107       0.07130353      -0.18379000       0.18412000       0.61876000
Mg      -6.90685830     -11.81926545      -7.06022421       1.00000000      -0.09382179       0.20547148       0.05652612      -0.35723000       0.23634000       0.04391000
Mg      -5.59608510     -13.84564082      -5.50859573       1.00000000       0.12501831       0.01482962       0.10752250       0.30855000       0.02003000       0.09965000
Mg      -5.32431981      -9.33389465      -3.02049053       1.00000000       0.00999820      -0.02893263       0.11542957       0.50678000       0.04062000      -0.09772000
Mg      -6.13776839      -8.93445697      -6.93513487       1.00000000       0.03586060      -0.12045160       0.08646317      -0.23893000      -0.05722000      -0.03782000
Mg      -2.19130430      -5.68846268      -1.34795643       1.00000000       0.09544254      -0.02107211       0.01148817       0.04969000       0.28302000      -0.04372000
Mg      -0.75276809      -7.67566022       0.22698131       1.00000000      -0.18164737       0.02340455      -0.07810119       0.10777000      -0.15075000       0.12981000
Mg      -4.50916169      -6.40874219      -2.97497355       1.00000000       0.09435660       0.01248899      -0.00065405       0.41319000      -0.25885000      -0.17808000
Mg      -3.05454263      -5.15848663      -5.19320473       1.00000000       0.13137684      -0.00572434      -0.07289970      -0.14678000      -0.52766000      -0.05156000
Mg       0.08156204      -4.85081657       0.31326946       1.00000000       0.06191800      -0.05460012       0.01079643      -0.12252000      -0.02716000       0.17933000
Mg      -3.93206014     -11.43309972      -1.44374093       1.00000000      -0.03261287       0.08322126      -0.09677843       0.35772000       0.28998000      -0.35159000
Mg      -3.88740823      -8.10018273      -5.29172243       1.00000000      -0.03910955       0.24151966      -0.03252379      -0.19160000       0.12592000       0.21561000
Mg      -4.80032878     -10.92714473      -5.32661645       1.00000000       0.02207042       0.13217002       0.06825067       0.18712000      -0.25111000      -0.25916000
Mg      -3.03341785      -8.48972119      -1.43008372       1.00000000       0.09199982      -0.11815129      -0.06869786      -0.06412000      -0.08084000      -0.08612000
Mg      -1.34502119      -2.77389207      -1.18631183       1.00000000       0.09911496      -0.05366916      -0.05199410      -0.29134000      -0.12410000      -0.15413000
16
Lattice="-2.5433177466024848 13.253949698696674 0.4963289715201367 3.8777245080261995 2.53127728113582 -0.9107910336281987 0.4091572757793003 -11.504039694142993 -4.72352268172479" Properties=species:S:1:pos:R:3:masses:R:1:momenta:R:3:dft_forces:R:3 ns_energy=-27006.37485213411 volume=272.22963623061503 committee_std=0.002972028085340141 KEmax=76.970702383392 last_walked_iter_extra=115521 last_walked_iter_clone=115110 iter=115529 ns_P=0.12484 config_type=mg16_hole config_n_global=115529 ns_KE=0.1974843560664088 temp=80.25147865889627 dft_energy=-27040.599953 dft_stress="-19.467104 0.883279 0.486811 0.883279 -19.221984 -0.650079 0.486811 -0.650079 -19.649524" dft_virial="33.07701892277887 -1.500800334610284 -0.8271521361789049 -1.500800334610284 32.660529707004834 1.104564674041972 -0.8271521361789049 1.104564674041972 33.386973078871804" pbc="T T T"
Mg       1.00310284       6.25382262      -1.68001377       1.00000000      -0.01209695      -0.03370336       0.09268472      -0.34728000       0.17215000       0.00984000
Mg      -0.17265612      -0.50632252      -0.71998510       1.00000000       0.07935914      -0.11322070       0.01301846      -0.43383000       0.32422000      -0.39703000
Mg       0.93837700      -2.64616551      -2.24321722       1.00000000       0.14521031      -0.11291669      -0.05283889      -0.47547000      -0.10260000      -0.09638000
Mg       3.00476896      -7.21591266      -4.96420462       1.00000000      -0.16894209      -0.07741790       0.06972725      -0.28461000      -0.04531000      -0.08205000
Mg      -0.74274306      -0.72896292      -3.72692453       1.00000000      -0.02389512      -0.18216898       0.14396997       0.18512000       0.08826000       0.68635000
Mg      -0.14854841       3.61744375      -1.15982667       1.00000000       0.09223059       0.01099226       0.05616281       0.47325000      -0.03867000      -0.01132000
Mg       2.74040689       8.39834412      -0.69151337       1.00000000       0.14501807       0.15222684      -0.02510918      -0.08646000       0.24264000      -0.04508000
Mg       2.00177367       4.02696156      -3.06327002       1.00000000       0.00168167       0.05298219      -0.13772240       0.28263000      -0.24718000       0.07185000
Mg       0.98764997       1.38252616      -2.64389229       1.00000000       0.01619084      -0.09223105      -0.02371873       0.00726000       0.06059000       0.25809000
Mg       2.15150392      -0.79402135      -4.02926218       1.00000000      -0.02966592       0.01888193      -0.04342557      -0.17687000      -0.10752000      -0.13889000
Mg      -0.64149879       3.41512305      -3.91509540       1.00000000       0.01300011       0.16419962       0.04019554       0.11392000      -0.10493000      -0.51336000
Mg       0.06148918      12.68952084      -0.74614714       1.00000000      -0.04467933      -0.07030058       0.08937159       0.14479000       0.14544000       0.17113000
Mg      -1.70720330       5.69017779      -2.58831286       1.00000000      -0.00147536       0.09370775       0.08847183       0.13277000      -0.11077000       0.12111000
Mg       1.90126948      -4.92679657      -3.60406982       1.00000000       0.04899318       0.21093408      -0.05288812       0.08038000      -0.15137000       0.03559000
Mg       1.12692660      10.46817157      -2.09880558       1.00000000       0.03236828       0.04162046       0.15781438       0.28608000      -0.09986000      -0.01000000
Mg      -0.07636180       8.53919827      -0.32270611       1.00000000      -0.02532906       0.02508455       0.07433165       0.09833000      -0.02508000      -0.05984000
16
Lattice="1.3228054695248581 1.0876793701713923 5.168720848532079 4.978789954029598 1.8004887375915144 0.9452167868229581 -9.495219970039017 6.42881964318625 -7.569413161156373" Properties=species:S:1:pos:R:3:masses:R:1:momenta:R:3:dft_forces:R:3 ns_energy=-26998.106886447727 volume=258.9663679969197 committee_std=0.0030007107037518283 KEmax=76.970702383392 last_walked_iter_extra=116648 last_walked_iter_clone=116650 iter=116659 ns_P=0.15605 config_type=mg16_hole config_n_global=116659 ns_KE=0.19222710674875707 temp=-inf dft_energy=-27038.772059 dft_stress="-25.51859 -0.520408 1.095664 -0.520408 -24.853594 -0.956104 1.095664 -0.956104 -24.51724" dft_virial="41.24674198155991 0.8411567606650535 -1.7709665897090654 0.8411567606650535 40.17188171573922 1.5453900468457447 -1.7709665897090654 1.5453900468457447 39.62821897212894" pbc="T T T"
Mg      -4.68587876       4.97655447      -2.61217235       1.00000000      -0.09167820       0.00744544      -0.00184265       0.70804000       0.18681000      -0.01544000
Mg       0.12354809       1.79635987       1.21755559       1.00000000      -0.02564316       0.17427035       0.07266639       0.40824000       0.04768000      -0.40516000
Mg       0.25752472       4.28818665      -0.27650002       1.00000000       0.02694456       0.20064268      -0.01253338       0.31477000      -0.08194000       0.09682000
Mg       3.30184706       3.17785302       4.18612491       1.00000000      -0.00391849       0.07611927       0.13493255      -0.32731000       0.22635000       0.28109000
Mg       2.99349348       1.88129031       1.67773019       1.00000000      -0.20158998      -0.19217689       0.03372748      -0.60384000      -0.07774000       0.22533000
Mg       1.07901528       1.52608800       3.83588796       1.00000000       0.04258810      -0.03622094      -0.01724811       0.35131000       0.06940000      -0.07962000
Mg       1.25789234       4.06711014       2.41237734       1.00000000      -0.06855069      -0.08910281      -0.05779176      -0.22550000      -0.34084000       0.05683000
Mg      -3.69391438       4.71058149       0.15155783       1.00000000      -0.00607441      -0.09791506      -0.08354431       0.10639000       0.28330000      -0.45328000
Mg      -3.54235691       7.24924900      -1.35491160       1.00000000       0.00416777       0.10970798       0.04089146      -0.11252000      -0.35371000       0.01075000
Mg      -6.31762654       7.10144870      -1.93199656       1.00000000      -0.15093271       0.04442806      -0.00772972      -0.13997000       0.48057000       0.12362000
Mg      -1.42700761       6.48538845       0.44532486       1.00000000      -0.11898976       0.05330801       0.05654882      -0.37942000      -0.25784000       0.40682000
Mg      -1.90842714       2.56964484      -0.63933511       1.00000000       0.04453486       0.04740692      -0.03173574      -0.17998000      -0.00117000      -0.19154000
Mg      -1.57779396       3.96271460       1.80113728       1.00000000      -0.02056546      -0.02429851       0.12740804       0.25833000       0.09100000       0.36150000
Mg      -6.72855115       5.82640792      -4.38244711       1.00000000       0.05594346      -0.01387924      -0.11269506       0.11348000      -0.07650000      -0.24598000
Mg      -4.52458924       7.49389018      -4.07079425       1.00000000       0.00844169       0.03497107      -0.16481709       0.16528000      -0.08125000       0.21786000
Mg      -1.82973046       5.08564184      -1.93828467       1.00000000      -0.10248764       0.05983592       0.14150878      -0.45730000      -0.11412000      -0.38962000
16
Lattice="3.7998448882513434 -8.646860714539724 1.1889322334156653 5.508862130291505 0.6247832331288249 0.23060567925441633 -3.0532749683694727 0.17702877933934302 4.772910924855744" Properties=species:S:1:pos:R:3:masses:R:1:momenta:R:3:dft_forces:R:3 ns_energy=-26990.180289460634 volume=248.04652362756153 committee_std=0.0033174900079366012 KEmax=76.970702383392 last_walked_iter_extra=116878 last_walked_iter_clone=116759 iter=116879 ns_P=0.18726 config_type=mg16_hole config_n_global=116879 ns_KE=0.24401142841675671 temp=87.19710539366794 dft_energy=-27036.951369 dft_stress="-30.569758 -0.449693 -1.10066 -0.449693 -30.901287 -0.725576 -1.10066 -0.725576 -29.64781" dft_virial="47.327629810561255 0.6962077957045235 1.7040249068145175 0.6962077957045235 47.84089791636261 1.123325618980294 1.7040249068145175 1.123325618980294 45.90028407728501" pbc="T T T"
Mg       3.51241888      -0.28565416       3.57721156       1.00000000      -0.02780361       0.02132172      -0.08442078       0.31388000      -0.02517000       0.27845000
Mg       2.37171543      -2.54276195       4.71584603       1.00000000       0.02771826       0.04673532      -0.10608059       0.34425000      -0.33386000      -0.22243000
Mg       3.93500626      -2.71181218       2.28024822       1.00000000       0.08438169      -0.18579033      -0.00236759      -0.18989000      -0.09855000       0.21450000
Mg       5.65148250      -4.87312986       1.72635901       1.00000000       0.21575210      -0.09427549       0.04611897      -0.00298000       0.28198000       0.36471000
Mg       4.43029799      -7.16717156       2.82908543       1.00000000       0.01173917       0.02384561       0.12603958      -0.21594000      -0.10527000       0.15515000
Mg       2.91749602      -5.20283278       1.64364743       1.00000000       0.05239613       0.04906162      -0.04455668      -0.17258000       0.27495000      -0.04980000
Mg       7.11729335      -6.86241530       2.98407975       1.00000000      -0.04679655      -0.07499836       0.02121852       0.49326000       0.10920000      -0.08744000
Mg       0.79485407      -0.57116545       3.48730253       1.00000000       0.06982874       0.10365984      -0.10828401      -0.17401000      -0.04370000       0.09360000
Mg       5.62954482      -6.78722919       5.38165068       1.00000000      -0.02113356      -0.12991496       0.08194532       0.11956000       0.10327000      -0.10211000
Mg       2.87904934      -7.07112110       5.22973948       1.00000000       0.02338984       0.11254758       0.12517998       0.03888000      -0.15237000      -0.14989000
Mg       1.16907829      -2.98210473       2.22572961       1.00000000      -0.01834066       0.09121231      -0.08545274       0.25875000      -0.15619000      -0.36956000
Mg       5.11035958      -0.43113108       1.24936578       1.00000000       0.20028717       0.02302850       0.10736775      -0.16796000       0.54005000      -0.01748000
Mg      -0.36238097      -2.88948218       4.53306724       1.00000000      -0.01600500       0.15303428       0.06529885      -0.13361000      -0.10994000       0.29178000
Mg       2.35161384      -0.68888380       1.11207576       1.00000000      -0.02082869      -0.18474016      -0.16784737      -0.15986000      -0.10864000      -0.21811000
Mg       4.13111899      -4.77504998       4.18474665       1.00000000       0.20044066      -0.09593719      -0.14670651       0.20346000       0.15047000      -0.29428000
Mg       1.43188829      -5.02213093       4.00286578       1.00000000       0.13925396       0.05136815       0.04742990      -0.55521000      -0.32624000       0.11289000
16
Lattice="2.0580226495755802 -3.192337280818601 -3.749060224281546 7.7217793860631865 -5.950783580730247 5.211021481436681 3.2565156658313295 -6.799554306909924 7.874557351143925" Properties=species:S:1:pos:R:3:masses:R:1:momenta:R:3:dft_forces:R:3 ns_energy=-26982.560233591452 volume=240.6121298593663 committee_std=0.003375498496381172 KEmax=76.970702383392 last_walked_iter_extra=117003 last_walked_iter_clone=116752 iter=117009 ns_P=0.21847 config_type=mg16_hole config_n_global=117009 ns_KE=0.24114792122197914 temp=53.3976640854729 dft_energy=-27035.459955 dft_stress="-34.794466 -0.097772 0.124699 -0.097772 -34.932677 0.901155 0.124699 0.901155 -34.376689" dft_virial="52.25373072413831 0.14683230834352942 -0.18727081391533135 0.14683230834352942 52.46129362730555 -1.3533390830228824 -0.18727081391533135 -1.3533390830228824 51.62632040949981" pbc="T T T"