16
Lattice="4.687878901710652 13.803750282119111 3.00190820614169 -2.205056313998151 4.603077955286151 5.2238766201036135 3.9373023436334846 2.4120915220219787 4.855487547497668" Properties=species:S:1:pos:R:3:masses:R:1:momenta:R:3 ns_energy=-27040.264255815015 volume=407.0400873736982 committee_std=0.0026247390025230686 KEmax=76.970702383392 last_walked_iter_extra=64705 last_walked_iter_clone=64713 iter=64729 ns_P=0.0 config_type=mg16_0GPa config_n_global=64729 ns_KE=2.403283146106794 temp=999.7962342607423 pbc="T T T"
Mg       3.93996126      10.73927356       8.82498379       1.00000000       0.78541382       0.03421576       0.33903263
Mg       3.37909448       6.06881105       7.25908891       1.00000000       0.22405156      -0.04896317       0.07307133
Mg       3.39465064      16.95556936       8.14821139       1.00000000      -0.08635424       0.08401420       0.39740363
Mg       2.16001092       9.57009564       6.40566334       1.00000000       0.37793689      -0.07907309       0.14766652
Mg       4.65611646      11.59548989       5.68882315       1.00000000      -0.16436869      -0.27520589      -0.06612863
Mg       6.28062085      15.56142866       7.76217174       1.00000000       0.01096214       0.14431258      -0.07072800
Mg       5.30385876      18.28806067      10.56668206       1.00000000      -0.07408749      -0.22049629      -0.65648810
Mg       2.82310603       9.96719789       3.13357252       1.00000000       0.51918688      -0.26009903       0.30276176
Mg       0.28093493       7.61029840       6.82523408       1.00000000      -0.26573517      -0.06942331       0.14696706
Mg       1.90259112       8.38099512       9.64662710       1.00000000      -0.10517846      -0.09004509      -0.26339063
Mg       3.09715986       7.49214273       4.36570635       1.00000000       0.05968537       0.44012400      -0.51386443
Mg       5.31313537       8.37331047       6.35068107       1.00000000       0.27160388       0.05738690       0.29572190
Mg       3.23810973      13.78477359       8.30529100       1.00000000       0.37154522       0.00226398      -0.44140770
Mg       1.58634425       4.90787774       4.15981287       1.00000000       0.10392910       0.07021661       0.48693237
Mg       4.20138021      14.44984712       5.79692758       1.00000000      -0.24518554       0.05756789      -0.00976854
Mg       5.29339317      15.19971037      10.81663520       1.00000000       0.16547588       0.94863713       0.48713694
16
Lattice="-0.5745978126207487 4.861611041898021 -3.0249685122245915 -7.431959440414001 -2.895323098420258 -7.257934665361115 -1.2492709479509416 6.499744903357303 5.096153395440928" Properties=species:S:1:pos:R:3:masses:R:1:momenta:R:3 ns_energy=-27041.378559199176 volume=366.6482629772019 committee_std=0.0033384740881259624 KEmax=76.970702383392 last_walked_iter_extra=69415 last_walked_iter_clone=69224 iter=69479 ns_P=0.0 config_type=mg16_0GPa config_n_global=69479 ns_KE=2.1283818958811658 temp=814.4591689803661 pbc="T T T"
Mg      -4.59805024       2.17166017      -1.55406345       1.00000000       0.07527623       0.26724540      -0.28895011
Mg      -0.84049731       6.11555298      -2.03941078       1.00000000      -0.39039108       0.23633685      -0.33478520
Mg      -1.21798766       3.87216954       2.24288864       1.00000000       0.04442789      -0.31276350      -0.05112693
Mg      -6.17806345       5.67977247      -0.60027545       1.00000000      -0.62402084      -0.37436128       0.22029228
Mg      -8.49231359       6.98147431      -5.33999026       1.00000000      -0.24643097      -0.08656592       0.21447653
Mg      -6.94040543       4.89794846      -3.50761418       1.00000000       0.09156524       0.37570471      -0.51376186
Mg      -6.67933851       1.22488495      -7.68741842       1.00000000      -0.17777633       0.04354377      -0.38989425
Mg      -5.12256950       8.33599608      -1.92076040       1.00000000       0.52142525      -0.28663677       0.36920769
Mg      -5.86448494       1.77044343      -4.59114131       1.00000000      -0.23051219      -0.34866389       0.25010440
Mg      -3.94048497       5.26980504      -2.84765104       1.00000000       0.16060937       0.00511387       0.55248838
Mg      -3.85862131      -0.23352568      -2.87140632       1.00000000      -0.05011162      -0.10147298      -0.40258823
Mg      -2.00441663       7.12894712       3.21942836       1.00000000       0.08305357      -0.23322655       0.32127542
Mg      -7.67118149       3.78945438      -6.42724280       1.00000000       0.14683844      -0.63569105      -0.13441559
Mg      -1.97027941       3.26328651      -1.00339974       1.00000000       0.39612530      -0.22599173       0.00869985
Mg      -2.90057597       5.78973171       0.23556666       1.00000000       0.23460521      -0.15337568       0.05889087
Mg      -2.59100996       2.34573205      -3.89231335       1.00000000       0.44439145      -0.10147165      -0.20602491
16
Lattice="7.181687424815192 3.8664105873658654 9.920961983857358 -3.1268610853484815 -0.823561615962785 5.40787014906447 7.211015554568529 -1.719543272471024 9.104758936350443" Properties=species:S:1:pos:R:3:masses:R:1:momenta:R:3 ns_energy=-27042.265869200473 volume=386.0423855692806 committee_std=0.0020407466577258954 KEmax=76.970702383392 last_walked_iter_extra=74217 last_walked_iter_clone=74120 iter=74219 ns_P=0.0 config_type=mg16_0GPa config_n_global=74219 ns_KE=1.5900526816732987 temp=640.916326619642 pbc="T T T"
Mg       6.81917806      -0.48572744       9.00233068       1.00000000       0.25335490      -0.13318508       0.07075763
Mg       6.84352568      -0.19842665      14.56188347       1.00000000       0.03329242      -0.28671289       0.07158695
Mg       9.59942138       1.97193463      20.11760953       1.00000000      -0.37698734      -0.19034680       0.27754210
Mg       2.54324318       0.17024779       5.45868475       1.00000000       0.19505766      -0.03581213       0.32290248
Mg       0.89951172      -0.14029774       7.68478363       1.00000000       0.22207853       0.45241110       0.12359334
Mg       8.95424095       1.07720137      16.07124945       1.00000000      -0.29426085       0.09958180      -0.42841075
Mg       7.33947488       0.49625209      18.87686761       1.00000000       0.19472466       0.21949918      -0.02419901
Mg       8.43203524      -0.43036852      11.86487083       1.00000000      -0.32739022      -0.37806896      -0.18256067
Mg       3.23111598       0.99430362       9.50497814       1.00000000      -0.45809711       0.01898802       0.22931246
Mg       5.91044342       2.08624525      10.53802431       1.00000000      -0.03157517      -0.11154906       0.10494617
Mg       4.91966235      -0.99207651      11.66791470       1.00000000      -0.09584520      -0.37422032      -0.14828952
Mg       4.89349830       1.20031441       6.87077834       1.00000000      -0.14564651      -0.21077312       0.05102791
Mg       7.29344108       2.54662798      13.65362125       1.00000000       0.39198867       0.14954456       0.52613866
Mg       4.47483213       1.58325035      13.27518907       1.00000000      -0.11709829       0.07037420      -0.46326923
Mg       5.73956780       1.92936122      16.46707608       1.00000000      -0.17819603       0.22024813      -0.23695070
Mg      11.39230296       2.28457796      17.49787668       1.00000000       0.52704046       0.01823902      -0.24283017
16
Lattice="-0.421017828808034 13.307526320591617 2.7480227580779215 -3.733226600252466 -1.6709939638002445 3.8717067947430848 3.9788679717569284 9.305075079564606 4.995600321966522" Properties=species:S:1:pos:R:3:masses:R:1:momenta:R:3 ns_energy=-27042.948615735546 volume=394.6763559613673 committee_std=0.002825610833705062 KEmax=76.970702383392 last_walked_iter_extra=78967 last_walked_iter_clone=78822 iter=78969 ns_P=0.0 config_type=mg16_0GPa config_n_global=78969 ns_KE=0.9098371486060347 temp=502.9078942205334 pbc="T T T"
Mg      -0.34310098      12.49680174       9.23307254       1.00000000      -0.29251426      -0.39180252      -0.06581086
Mg       0.30880863      17.19361856       7.43041830       1.00000000      -0.12622991       0.11036382       0.26298592
Mg       0.50306369      12.80807598       3.73718562       1.00000000       0.00303136      -0.01809199       0.34475699
Mg       0.03256342       6.31526815       6.40604727       1.00000000      -0.16367065      -0.19808931      -0.26654029
Mg       1.15930522       8.28680369       4.11239408       1.00000000      -0.11567879      -0.26481550       0.18466740
Mg       2.76770444      19.47808032       7.91863324       1.00000000      -0.14224043      -0.30493646      -0.06424522
Mg      -2.07482145       8.36204667       5.43912844       1.00000000      -0.07763433       0.02244380       0.01442087
Mg      -0.98974377       6.31409935       3.16347278       1.00000000       0.26447741       0.08498531      -0.03849017
Mg       2.76518751      10.90754928       4.81649066       1.00000000      -0.06633197      -0.19481999      -0.00571928
Mg       0.33748070      14.17811704       6.51336370       1.00000000       0.32314445       0.39216488       0.33723414
Mg      -1.67866529       2.86538878       2.48616657       1.00000000      -0.15896645       0.03519791       0.21814211
Mg      -1.98267896      -0.26118760       2.17532241       1.00000000      -0.14733565      -0.50643029      -0.01813916
Mg      -0.38230235      15.70513669       9.58632218       1.00000000       0.14749898       0.03973721      -0.01975641
Mg      -2.42301071       1.14934723       5.09627518       1.00000000       0.02770540      -0.00973261      -0.12035963
Mg      -2.02851706       4.27746962       5.91579570       1.00000000       0.12208327      -0.15244290       0.10993565
Mg      -0.25616829      11.01464158       6.01547911       1.00000000       0.13356624      -0.14624582      -0.08316328
16
Lattice="11.829685111702869 0.9582030009577142 -4.872962392693749 -9.793363400265067 -0.5779310101595012 9.783136149598866 -2.3957368306392492 -5.813167764604076 1.3729308672943341" Properties=species:S:1:pos:R:3:masses:R:1:momenta:R:3 ns_energy=-27043.495796158168 volume=383.1321704765447 committee_std=0.0020630131009712976 KEmax=76.970702383392 last_walked_iter_extra=83713 last_walked_iter_clone=83687 iter=83719 ns_P=0.0 config_type=mg16_0GPa config_n_global=83719 ns_KE=1.0157727959692133 temp=391.3812600376551 pbc="T T T"
Mg      -1.91404171      -1.89045682       1.82495939       1.00000000      -0.12063387      -0.00946247       0.06110222
Mg       3.82385844      -2.43790745       2.29940703       1.00000000       0.34902581       0.25069430       0.07879742
Mg      -2.28268919      -2.80585031       4.83489045       1.00000000      -0.14457587      -0.01273274       0.07354168
Mg       2.83346910      -4.27720892       0.04546548       1.00000000      -0.03196031      -0.32852256       0.15608958
Mg       2.60825630      -5.07849764       3.04655630       1.00000000       0.25497027      -0.03002802       0.09751911
Mg       2.14993465       0.23849257       2.67601117       1.00000000      -0.12213210       0.09241998       0.26242724
Mg      -5.14699686      -2.76816894       5.98079974       1.00000000      -0.24629267      -0.30891429      -0.02479418
Mg       6.92343715      -0.80926909      -1.94113337       1.00000000      -0.06025020      -0.26126034       0.13727627
Mg       4.01699413      -1.47724449      -0.55455064       1.00000000      -0.07605325       0.71095200      -0.22382897
Mg       0.77703657      -2.53141078       3.59595450       1.00000000       0.20298670      -0.37690049      -0.11011609
Mg       1.03092982      -1.54686577       0.51723794       1.00000000      -0.01826644       0.09898048       0.02649900
Mg      -6.17599339      -5.73285703       6.50439807       1.00000000       0.14552577       0.15253129      -0.06530120
Mg      -2.99187126      -4.79575062       2.38917885       1.00000000       0.09375355      -0.30487315       0.09047926
Mg      -3.19809976      -5.69476251       5.56236228       1.00000000       0.00802377       0.34780473       0.26341935
Mg       5.98401821      -3.75275897      -1.31106876       1.00000000       0.05345989       0.10463881      -0.29240245
Mg       0.05074829      -4.46534843       1.43504247       1.00000000      -0.07899943       0.14876461      -0.05516044
16
Lattice="5.584653333473069 6.496195888113451 7.273134172581919 1.7539323885815765 -2.5189235932630463 5.57120950852602 10.548597342081694 5.514786150498261 3.7601178351611786" Properties=species:S:1:pos:R:3:masses:R:1:momenta:R:3 ns_energy=-27043.914566525837 volume=378.0562547351049 committee_std=0.001729941640795297 KEmax=76.970702383392 last_walked_iter_extra=88457 last_walked_iter_clone=88221 iter=88459 ns_P=0.0 config_type=mg16_0GPa config_n_global=88459 ns_KE=0.4696076089843839 temp=296.5778918177097 pbc="T T T"
Mg       3.93223573       2.34801550       2.07117348       1.00000000      -0.10409482      -0.15812420      -0.13228709
Mg       3.97529742       4.20499890       5.21117827       1.00000000       0.06991332       0.20339663      -0.10210146
Mg       9.57606859       6.87591690       6.76575972       1.00000000      -0.30773482      -0.00714275       0.10728928
Mg      10.25908142       3.91957864       7.16583117       1.00000000      -0.07432812       0.01841265       0.05562137
Mg       8.84636951       5.03507320       4.33442654       1.00000000       0.04512677      -0.10054302      -0.02914888
Mg       7.85165490       3.61564236       9.25693909       1.00000000      -0.30020087       0.00965707      -0.23032849
Mg       6.82293451       4.66493436       6.59545668       1.00000000      -0.12146152      -0.09028769      -0.00513789
Mg       4.89547271       2.93323511       8.11204796       1.00000000       0.20790394      -0.02649777      -0.00069095
Mg       2.56007271      -1.32465330       4.77906381       1.00000000       0.13513276      -0.01975420       0.27781452
Mg      13.15985969       6.52002206      10.90900478       1.00000000       0.33283131       0.12320410       0.10329788
Mg       4.73123177       1.06410202       4.98593076       1.00000000       0.15367691      -0.04919451      -0.17419116
Mg       1.73319033       0.11657094       1.99759195       1.00000000      -0.00039153      -0.00671972       0.17171461
Mg       6.53863634       3.06594487       3.44772812       1.00000000       0.10395565       0.21074711      -0.07829251
Mg      12.46402081       7.54599750       8.04678078       1.00000000       0.13497522      -0.16154770       0.06102506
Mg       7.46781413       1.81590567       6.20975963       1.00000000      -0.02889262       0.15957315      -0.01297144
Mg      10.26538218       5.67382157       9.64934568       1.00000000      -0.18802735       0.00192258      -0.03565470
16
Lattice="8.460478500698022 -8.21067241511505 -4.806123914080474 8.097284114771583 -13.191183170968817 -1.288576042191052 -6.948884734961055 4.028528989052902 -2.484603938170047" Properties=species:S:1:pos:R:3:masses:R:1:momenta:R:3 ns_energy=-27044.225556263304 volume=366.2755907765149 committee_std=0.0020272402238468647 KEmax=76.970702383392 last_walked_iter_extra=93202 last_walked_iter_clone=93032 iter=93209 ns_P=0.0 config_type=mg16_0GPa config_n_global=93209 ns_KE=0.4667489721231613 temp=223.0144436910515 pbc="T T T"
Mg       2.20359043      -3.12192494      -1.08220335       1.00000000      -0.25795809      -0.04850365      -0.26586123
Mg       7.67592973     -12.08550824      -5.31081077       1.00000000      -0.15189903       0.11132181       0.07520561
Mg       8.60172305      -9.16205707      -4.76349218       1.00000000      -0.17480670      -0.23406447       0.08247364
Mg       5.75742117     -10.02304587      -4.03404040       1.00000000       0.14222418      -0.04502755       0.07290595
Mg       3.33664105      -8.17741405      -2.98750793       1.00000000       0.17071606      -0.14074017       0.03526483
Mg       4.04156648      -6.20595587      -5.24201163       1.00000000       0.06121494      -0.11036518       0.03784806
Mg      -2.33939174       0.11307589      -2.04141574       1.00000000       0.05268744      -0.11866894       0.15430163
Mg      -1.12177098      -4.88598875      -3.64465210       1.00000000       0.16518584      -0.06027528       0.05714775
Mg       1.10448875      -7.22650442      -4.86536671       1.00000000       0.13769647      -0.03012910      -0.16783973
Mg       1.88137602      -3.92548875      -4.25235234       1.00000000       0.15112315      -0.08506436      -0.05178661
Mg       9.72821532     -14.30487006      -6.57768547       1.00000000       0.09599717       0.16685561      -0.08195376
Mg       5.29128392     -11.12014705      -7.07118560       1.00000000      -0.16874314      -0.37400779       0.01010445
Mg       3.25997867      -9.20324918      -5.97544413       1.00000000       0.01226601       0.09356416      -0.06874655
Mg      -0.28678731      -1.91846518      -2.97118146       1.00000000      -0.02452400      -0.09717605       0.10527129
Mg       6.39537998      -6.90334896      -3.71563051       1.00000000      -0.16679247      -0.14226075      -0.25444102
Mg       4.36828121      -5.10913449      -2.27932062       1.00000000      -0.10672066       0.03183679      -0.19414263
16
Lattice="5.833953089321528 -5.643689095332679 -1.8576381926766865 0.2911675691834581 -11.04333644380542 0.9713476428872214 -4.865540944900503 5.279972853714472 -4.3655810153680115" Properties=species:S:1:pos:R:3:masses:R:1:momenta:R:3 ns_energy=-27044.465163545283 volume=367.7951678397141 committee_std=0.002176382976992104 KEmax=76.970702383392 last_walked_iter_extra=97947 last_walked_iter_clone=97932 iter=97959 ns_P=0.0 config_type=mg16_0GPa config_n_global=97959 ns_KE=0.4138007454589168 temp=173.7171689985782 pbc="T T T"
Mg       1.89571051      -4.27090322      -4.38152132       1.00000000      -0.10972595      -0.15305709      -0.01123524
Mg       1.69053478      -1.42948505      -2.96693769       1.00000000       0.20651264       0.17871202       0.10081687
Mg       4.40990300      -8.76953637      -1.97875004       1.00000000      -0.09771866      -0.01731815      -0.15655381
Mg      -0.68072497      -0.56623043      -4.96231863       1.00000000       0.11996274      -0.03433191       0.21956390
Mg       2.23336717      -9.74192443      -3.86586652       1.00000000       0.13863061       0.08451247       0.21926315
Mg      -0.56497043      -6.20900557      -4.58785124       1.00000000      -0.01826218      -0.17684071      -0.10072577
Mg       1.62328826      -9.67661995      -0.73894604       1.00000000       0.01937755      -0.03631251       0.02284999
Mg      -1.17245964      -0.16812923      -1.82061841       1.00000000       0.06160691      -0.02348476      -0.03283170
Mg      -3.28508776      -7.01173719      -3.29531351       1.00000000       0.06642956       0.05668348      -0.00333489
Mg      -0.92678437      -5.96405259      -1.42021271       1.00000000      -0.17373516      -0.05251051       0.02253450
Mg      -0.84510446      -3.28421941      -3.19885658       1.00000000       0.30628773      -0.09181797      -0.01789846
Mg      -3.47430713      -1.56101288      -3.95237152       1.00000000       0.14649129       0.16441828      -0.09082415
Mg       1.51775281      -4.18296142      -1.22628873       1.00000000       0.03184692       0.04728216      -0.18227653
Mg       4.62295292     -14.12761484      -1.47167645       1.00000000       0.06089529      -0.01802527       0.32328016
Mg      -0.67103955      -8.91153344      -2.69178998       1.00000000       0.04779342      -0.07243445      -0.30089534
Mg       1.78299135      -6.98991428      -2.64458244       1.00000000      -0.07216800       0.18486319       0.04932401
16
Lattice="5.966654850445251 -5.221242926973875 -1.904936013548203 0.3144466868829989 -10.995809388892601 -0.4327947437945031 -4.4600614467475435 5.461751475621118 -4.229048422762561" Properties=species:S:1:pos:R:3:masses:R:1:momenta:R:3 ns_energy=-27044.650409628703 volume=364.69280378899833 committee_std=0.0022661508559670258 KEmax=76.970702383392 last_walked_iter_extra=102695 last_walked_iter_clone=102365 iter=102699 ns_P=0.0 config_type=mg16_0GPa config_n_global=102699 ns_KE=0.2939184662369583 temp=129.79575670237557 pbc="T T T"
Mg       0.65889499      -7.21030069      -3.12487799       1.00000000      -0.08989706       0.14648052      -0.18899143
Mg       0.30633947      -4.33914146      -1.33161265       1.00000000       0.01105088      -0.01508506      -0.15783629
Mg      -1.50749533      -6.27013724      -5.15238740       1.00000000       0.01230708       0.02124465      -0.13565887
Mg      -1.87508644      -3.37692291      -3.60112719       1.00000000      -0.10249262      -0.10110407      -0.08297200
Mg       0.47655632      -1.64729670      -2.84601016       1.00000000      -0.11036774       0.07206424      -0.02678009
Mg      -2.08633227       1.96031622      -3.31142920       1.00000000      -0.10587720       0.14557846      -0.18494490
Mg       1.25615102      -1.57349057      -5.91491809       1.00000000       0.02126204      -0.09631891      -0.03248668
Mg       3.29976190      -8.82657124      -2.45084149       1.00000000      -0.10226962       0.09257385      -0.05537656
Mg       0.85300721      -4.25203361      -4.53971870       1.00000000      -0.16325741       0.00380534       0.08333559
Mg       3.12113529      -3.30041342      -2.18002704       1.00000000       0.09585692       0.04778283      -0.13136767
Mg       3.83575330     -11.53816021      -4.03869814       1.00000000       0.07252132      -0.00039899       0.20702036
Mg       1.31918729      -9.82646686      -4.81315687       1.00000000       0.15064315      -0.03842514       0.02890260
Mg       1.50376570      -6.98942783      -6.16530628       1.00000000       0.09787382       0.29542385      -0.15866272
Mg      -1.63567885      -0.69014435      -4.92597226       1.00000000      -0.11203262      -0.10120263      -0.01428783
Mg       3.40970351      -5.93927946      -3.72063137       1.00000000       0.00626535      -0.05419090      -0.09692781
Mg       0.49826388      -9.99682753      -1.68242750       1.00000000       0.14908677       0.02081014      -0.13267304
16
Lattice="6.640539732382166 -4.937983429450471 0.27475960959065293 1.1168419517868688 -10.91081440319711 -1.1324991896340169 -2.507041108813889 5.850612053941715 -5.179986823101481" Properties=species:S:1:pos:R:3:masses:R:1:momenta:R:3 ns_energy=-27044.789467227813 volume=371.00038704532744 committee_std=0.002575026169966431 KEmax=76.970702383392 last_walked_iter_extra=107441 last_walked_iter_clone=107378 iter=107449 ns_P=0.0 config_type=mg16_0GPa config_n_global=107449 ns_KE=0.20074102433664887 temp=2.1858753798688086 pbc="T T T"
Mg       2.36370056      -8.36193445      -4.13217854       1.00000000       0.07380177       0.02189871      -0.09677215
Mg       1.02674357      -5.84082973      -2.71218748       1.00000000       0.05541428       0.05562641      -0.01842407
Mg       2.74795824      -2.02690664      -0.67817402       1.00000000       0.07238615      -0.00766283      -0.00357870
Mg      -0.02745689      -4.69228887      -5.49922097       1.00000000      -0.07003144       0.01456160      -0.07499777
Mg       1.81865229      -2.72149267      -3.76269428       1.00000000       0.04179177      -0.06960179       0.13898428
Mg      -0.60373191       0.76958707      -4.79373063       1.00000000      -0.24936608       0.18988463      -0.03034166
Mg       6.39019100      -8.08174910      -1.03775196       1.00000000      -0.07300675      -0.02319404      -0.09106153
Mg       4.65886783     -10.04352033      -2.62644197       1.00000000      -0.00504718       0.05890483      -0.07984253
Mg       3.21908936      -5.24744866      -5.08793618       1.00000000       0.01655096       0.17778929       0.06190099
Mg       3.99488087      -4.52042390      -2.17705815       1.00000000      -0.09207741       0.10505727      -0.08495219
Mg       4.63997712      -1.67003754      -3.14822904       1.00000000       0.01631410      -0.22368925       0.02024993
Mg       2.59465515       0.22000488      -4.60670635       1.00000000      -0.02732819       0.11112882       0.01504546
Mg       6.95557551     -13.68736637      -1.50697718       1.00000000      -0.03896087      -0.05147918       0.01188305
Mg       3.23880791      -7.48293086      -1.24273180       1.00000000      -0.01650205       0.18632330      -0.09653006
Mg       5.22776981      -7.12346498      -3.67487294       1.00000000       0.08725410       0.02052667       0.06815906
Mg       0.53191701      -0.31665105      -2.23272858       1.00000000       0.16045715       0.00363566      -0.03157940
16
Lattice="-2.358901676384974 5.879937485584434 -1.5006211213946896 -2.269244738548449 -2.08004571552945 12.05149105290265 3.587173014258381 2.7830011689107432 3.5551775120251095" Properties=species:S:1:pos:R:3:masses:R:1:momenta:R:3 ns_energy=-27038.143604271354 volume=396.4709876799447 committee_std=0.0032157061436442636 KEmax=76.970702383392 last_walked_iter_extra=66288 last_walked_iter_clone=66029 iter=66289 ns_P=0.006242 config_type=mg16_1GPa config_n_global=66289 ns_KE=1.8971212598225533 temp=999.5928516236754 pbc="T T T"
Mg      -2.39620197       0.62318593       7.93958190       1.00000000      -0.03515829       0.05770378      -0.07731139
Mg      -1.86774692       5.28587336       1.49739459       1.00000000      -0.02663125       0.10762825       0.15854317
Mg      -1.19778399       5.78903836       5.91329560       1.00000000      -0.17277937       0.14869282      -0.04963760
Mg      -0.75511314       2.75631427       9.44128670       1.00000000       0.77862238      -0.28624084      -0.36049988
Mg      -2.72090671       3.51013092       7.69618065       1.00000000      -0.11355613       0.65017135       0.26620559
Mg       2.19208873       2.81601569       8.50147785       1.00000000       0.28066440       0.46157146       0.10869438
Mg       0.69782273       4.93754915       3.76125707       1.00000000       0.20414925       0.24942254      -0.00434268
Mg      -3.58627803       2.37481876      10.49044886       1.00000000       0.02596794       0.22876742       0.22618364
Mg      -1.65360051       5.88836524       8.79951441       1.00000000      -0.16093127      -0.52877279       0.24382686
Mg      -2.05363188       4.64334495      11.72533701       1.00000000      -0.50190730       0.08114810       0.11653224
Mg       0.81840585       1.80313938      14.71283355       1.00000000      -0.34504526      -0.00555434      -0.06409718
Mg       1.52646098       1.54534108       4.72167833       1.00000000       0.12058634      -0.02097924      -0.25051905
Mg      -2.10586175       2.82452542       4.59682387       1.00000000      -0.20004638      -0.03973350      -0.12258245
Mg      -0.11981784       2.89067812       6.37805857       1.00000000       0.52266534       0.20279579      -0.21137191
Mg      -0.49704518       2.11269494       2.17801685       1.00000000       0.03105584      -0.07069329       0.27854681
Mg      -1.13962927       1.63093161      12.58847568       1.00000000       0.63179233      -0.20367912      -0.27881285
16
Lattice="2.4950982708045997 2.2228161908068915 4.758728946447877 -1.7237403074934723 -4.641551795978871 3.721206261562991 12.519207791327764 0.6960104508588261 -1.4797326681787695" Properties=species:S:1:pos:R:3:masses:R:1:momenta:R:3 ns_energy=-27039.21978331019 volume=379.37194080225 committee_std=0.0018151235467706974 KEmax=76.970702383392 last_walked_iter_extra=70984 last_walked_iter_clone=70717 iter=70989 ns_P=0.006242 config_type=mg16_1GPa config_n_global=70989 ns_KE=1.7279171397874409 temp=794.0550378422876 pbc="T T T"
Mg       7.03374283       0.38597246       3.38085007       1.00000000       0.04723648      -0.07303830      -0.39206499
Mg       7.22549507      -3.33381444       3.12751139       1.00000000       0.01020131      -0.04441553       0.19430942
Mg       1.33134353      -3.52099899       2.65722080       1.00000000       0.14134155      -0.26920773      -0.10870071
Mg       9.85737514       1.31192969       2.37093210       1.00000000       0.04286488      -0.19553278      -0.17052749
Mg       3.99038610       1.05498853       2.48201735       1.00000000       0.10429221      -0.21679046       0.16011370
Mg       6.16193089       0.64956392       0.41281516       1.00000000      -0.44984666       0.62311240       0.10551431
Mg       2.93553589      -1.41716773       4.18335176       1.00000000       0.06130418      -0.30104757       0.23148434
Mg       9.01563280      -1.27506586       4.56034429       1.00000000       0.01573791       0.33505499       0.02678664
Mg      13.25671724       1.45131654       1.98815393       1.00000000       0.04529223      -0.29482635       0.19600402
Mg       2.19221264      -0.90843008       1.13184184       1.00000000       0.22614918      -0.20381961       0.37307559
Mg      11.62592096      -0.45912826       0.27848693       1.00000000       0.35125717      -0.25632728      -0.15672274
Mg       5.91464340      -1.18853900       5.41432987       1.00000000       0.26194767       0.07597521      -0.28292390
Mg      10.66558417      -2.91174365       1.92498727       1.00000000       0.16801630      -0.23227275       0.37847932
Mg      11.88556186      -0.84772853       3.44788608       1.00000000      -0.14824691      -0.35803395       0.48714560
Mg       5.10151846      -1.77156962       2.13527948       1.00000000       0.30912913      -0.04561022      -0.07490455
Mg       8.57998874      -1.14841753       1.33828819       1.00000000       0.55911369       0.23477771      -0.56885882
16