16
Lattice="9.383405261498021 -22.517125862690495 -32.47210479377127 -3.8448381117717525 -0.8608335055356828 -22.05416058783403 15.24718206555247 -2.1387668587259214 -9.9927268523738" Properties=species:S:1:pos:R:3:masses:R:1:momenta:R:3:dft_forces:R:3 ns_energy=-1.032630627329364 volume=7381.694712180429 KEmax=76.970702383392 last_walked_iter_extra=85907 last_walked_iter_clone=83345 iter=85929 ns_P=0.0 config_type=mg16_0GPa_EAM config_n_global=85929 ns_KE=6.016001326132553 temp=2999.9549521553454 dft_energy=-27023.21818 dft_stress="0.054448 0.014237 0.038195 0.014237 0.03264 -0.013929 0.038195 -0.013929 0.014199" dft_virial="-2.50857807105008 -0.6559400895816191 -1.7597549850087757 -0.6559400895816191 -1.5038199426806242 0.641749631789167 -1.7597549850087757 0.641749631789167 -0.6541893188150177" pbc="T T T"
Mg      14.57429310     -22.37656116     -49.96309109       1.00000000       0.49198497       0.05270043      -0.25775890       0.06051000       0.05468000       0.15335000
Mg      15.48642625     -18.76226790     -47.91919650       1.00000000       0.43112874      -0.08708139       0.08115735       0.13383000      -0.09524000      -0.04405000
Mg       5.35084963      -2.69662908      -7.40549057       1.00000000       0.16071245      -0.68860266      -1.24970403      -0.09382000       0.02566000      -0.14748000
Mg       8.68429782     -18.82260825     -33.19461036       1.00000000       0.10472847      -0.01984801       0.31074534      -0.00885000       0.04163000      -0.12335000
Mg       8.10358131     -12.86516313     -20.56863226       1.00000000       0.46245707       0.00405172       0.45974479      -0.02831000      -0.03056000      -0.00603000
Mg      10.78516448     -10.12904195     -23.43976898       1.00000000       0.49831204       0.30586542      -0.12884758      -0.03636000      -0.03732000       0.04005000
Mg      16.53312966     -18.08967105     -53.07382450       1.00000000      -0.55578612      -0.43545815      -1.50067206       0.05711000       0.02689000       0.05865000
Mg       7.87085802     -16.78665821     -35.83079090       1.00000000       0.19892252       0.31940156       0.22505025      -0.32086000       0.23011000       0.16834000
Mg       1.69192850      -3.07992826     -10.06274069       1.00000000      -0.06727399      -0.05686984      -0.05014051       0.19755000       0.04193000      -0.02604000
Mg       5.16996896      -1.76498076     -12.09030335       1.00000000       0.14296008      -0.42734659       0.85477377      -0.60240000      -0.19144000       0.65962000
Mg      11.31697157     -22.25037045     -42.96387241       1.00000000       0.65374943       0.18456144      -0.51442886       0.14894000      -0.08752000      -0.03953000
Mg      15.93666602     -23.58859622     -46.97886879       1.00000000       0.16888518      -0.46658812       0.57844427       0.19376000       0.11472000      -0.68019000
Mg       4.57323223     -15.62749493     -37.76327225       1.00000000      -0.37724597      -0.41742415       0.14438122       0.20415000      -0.30256000      -0.18497000
Mg       3.51068044     -13.70797542     -35.63653802       1.00000000      -0.00080603      -0.48446726      -0.70243905      -0.13662000       0.17292000       0.21428000
Mg       4.23906103      -4.30688844     -15.39115526       1.00000000      -0.05692909       0.60776995       0.50378259       0.12062000       0.22433000       0.11724000
Mg       9.07420781     -18.59308140     -37.97092842       1.00000000      -0.22287159      -0.92930625       0.87657902       0.11076000      -0.18821000      -0.15990000
16
Lattice="7.3022897722172235 -19.138484940467315 -3.3865189350652383 -18.61776666300702 -24.54667763110615 1.3283094763360939 12.869531109625774 10.875769674743346 -14.584844874121645" Properties=species:S:1:pos:R:3:masses:R:1:momenta:R:3:dft_forces:R:3 ns_energy=-1.6040569747250921 volume=6994.33690401195 KEmax=76.970702383392 last_walked_iter_extra=88750 last_walked_iter_clone=87729 iter=88779 ns_P=0.0 config_type=mg16_0GPa_EAM config_n_global=88779 ns_KE=6.372349838301906 temp=2830.6101684455944 dft_energy=-27023.125591 dft_stress="-0.025112 -0.02057 -0.0024 -0.02057 0.027994 0.004547 -0.0024 0.004547 -0.020478" dft_virial="1.0962698247702958 0.8979878263589116 0.10477252227814232 0.8979878263589116 -1.2220841619392986 -0.1985002744994638 0.10477252227814232 -0.1985002744994638 0.8939715463382495" pbc="T T T"
Mg       6.52386037     -15.30487979     -16.00274115       1.00000000       0.26599608      -0.19536773      -0.31708191       0.07815000       0.09042000      -0.13625000
Mg      -8.38452384     -23.87431762      -3.78451033       1.00000000      -0.00952703       0.44234753       1.29795531       0.38506000       0.27247000      -0.45176000
Mg      -8.02486091     -16.11297689      -6.85616888       1.00000000       0.23360744       0.55047817       0.19954474       0.05527000       0.03460000       0.10494000
Mg       1.13947905     -23.44232381     -10.76262297       1.00000000       1.13565267       0.17099916      -0.20190457       0.00082000       0.00408000      -0.01924000
Mg      -3.00143239     -12.71756664      -4.96783555       1.00000000      -1.49728539       0.22137233       0.30572482      -0.05055000      -0.20101000       0.26716000
Mg       1.07403692     -11.54903682      -2.68637966       1.00000000      -0.27749702       0.66464184       0.53967148      -0.41118000      -0.24470000       0.15373000
Mg      -0.11939740     -23.29559294      -7.64808475       1.00000000      -0.71216388      -0.12494139       0.01924218       0.02218000      -0.07578000      -0.11686000
Mg      -3.39661535      -5.22610933      -2.25018090       1.00000000      -0.27800935       0.45154342      -0.44032371      -0.19552000       0.10061000       0.00411000
Mg       3.63836622     -10.75732497      -4.15450029       1.00000000       0.19435589      -0.78956057       0.40130174       0.28375000       0.08625000      -0.15595000
Mg       0.76054989     -22.52432466      -4.76183677       1.00000000      -0.08053105      -0.40649602       0.11417640       0.22283000       0.02973000       0.26791000
Mg      -0.03000078      -5.94448217      -2.23231927       1.00000000       0.26370151      -0.54600892      -0.00428696      -0.02637000      -0.02504000      -0.00281000
Mg      -9.33106518     -25.40085757      -1.58396179       1.00000000       0.47314209       0.45084770       0.07338721      -0.46216000      -0.36171000       0.58734000
Mg       0.03875964     -14.97106348      -2.19702347       1.00000000      -0.41963929      -0.02654899      -1.25451840      -0.17111000       0.18039000      -0.05330000
Mg      -5.95759825     -15.15714840      -3.40595795       1.00000000       0.10324710       0.04730120       0.53217580      -1.01558000      -0.06836000      -0.86606000
Mg      14.11235346      -9.93859744     -15.70339303       1.00000000      -0.48777238      -0.30558590      -0.26891435      -0.00604000      -0.05440000      -0.12324000
Mg      -3.68783598     -14.88529968      -1.97478896       1.00000000       0.32109706      -0.32279989       0.49017188       1.29045000       0.23243000       0.54025000
16
Lattice="24.511068160671687 15.102214516189257 -17.781167198548506 -0.1543235497530648 20.411522024506564 -5.539505617663059 25.84980945466604 3.8848108190859425 -0.4005595228021073" Properties=species:S:1:pos:R:3:masses:R:1:momenta:R:3:dft_forces:R:3 ns_energy=-2.150878605414431 volume=7556.183337465657 KEmax=76.970702383392 last_walked_iter_extra=91628 last_walked_iter_clone=88521 iter=91629 ns_P=0.0 config_type=mg16_0GPa_EAM config_n_global=91629 ns_KE=5.509453185930058 temp=2674.044305862736 dft_energy=-27022.514801 dft_stress="-0.022986 -0.002757 -0.002713 -0.002757 -0.02734 -0.048855 -0.002713 -0.048855 -0.076953" dft_virial="1.084065439104088 0.13002559886931048 0.12795047142997437 0.13002559886931048 1.2894087316238478 2.3040988874719495 0.12795047142997437 2.3040988874719495 3.629256405437087" pbc="T T T"
Mg      23.41028590      29.43402581     -19.26944200       1.00000000      -0.06551524      -0.11317221      -0.32891060       0.22811000       0.07218000      -0.06721000
Mg       7.93641785       4.48647626      -2.15218438       1.00000000      -0.06404178       0.08099922       0.13126050       0.20155000      -0.24216000      -0.13494000
Mg      17.04414433       6.48360855      -4.70383193       1.00000000      -0.43931187      -0.05004060       0.82303750      -0.01127000      -0.20310000      -0.24027000
Mg      31.02653135      24.47286039     -15.66443438       1.00000000       0.11917780       0.06905273       0.10833259      -0.03885000      -0.06398000      -0.08928000
Mg      42.50545435      24.34294909     -17.71462494       1.00000000       0.50450796      -0.26510326       0.02728894       0.51063000       0.75909000       1.85710000
Mg      23.23495125      22.65032500     -16.22480624       1.00000000      -0.17235643      -0.39488182      -0.18996913      -0.06006000       0.02615000       0.05202000
Mg      23.57840536      26.25889689     -20.04809551       1.00000000       0.14282192      -0.26497854      -0.04527354       0.56873000      -0.18831000      -0.11677000
Mg      21.23893918      27.41417071     -18.90683534       1.00000000       1.00551669       0.08535922      -0.07368065      -0.72895000       0.04543000       0.30119000
Mg      17.37275842       8.26833993      -2.22652899       1.00000000       0.26829188       0.03463221      -0.83765111      -0.47071000      -0.55181000      -1.53312000
Mg      31.41942803      22.15657300     -18.45617190       1.00000000       0.03415974       0.06445460       0.84360832      -0.09678000       0.26898000       0.19617000
Mg      33.21664273      11.88454532      -9.65646472       1.00000000       0.58030752       0.25147752      -0.00408693      -0.20581000       0.08319000       0.03255000
Mg      20.78232493      23.15384024     -12.37973034       1.00000000       0.30631561       0.07411788      -0.50265078      -0.08440000      -0.04635000      -0.12406000
Mg      25.94651718      24.75290770     -16.46583163       1.00000000      -0.27574652      -0.42017675      -1.49128071      -0.00637000       0.04696000      -0.08472000
Mg      36.00511836      31.09061347     -15.64353547       1.00000000       1.07058491      -0.38841047       0.49354050       0.20604000      -0.08593000      -0.03053000
Mg      11.65467542      23.46358983      -8.36592768       1.00000000       0.91862241       0.39334303       0.44315990      -0.11399000       0.04921000       0.01720000
Mg      17.23802537      21.56331900     -14.12342935       1.00000000       0.44426749      -0.39971943       0.69667739       0.10213000       0.03045000      -0.03532000
16
Lattice="-4.821909870811445 -2.639513639068745 -18.926376146159498 -0.624696638131441 17.41784938109366 -8.937875565561068 21.67378038700626 -17.38418870922576 17.561522079451517" Properties=species:S:1:pos:R:3:masses:R:1:momenta:R:3:dft_forces:R:3 ns_energy=-2.6631841025943226 volume=6696.006447297946 KEmax=76.970702383392 last_walked_iter_extra=94478 last_walked_iter_clone=92902 iter=94479 ns_P=0.0 config_type=mg16_0GPa_EAM config_n_global=94479 ns_KE=5.340348373325391 temp=2532.652584303907 dft_energy=-27022.509192 dft_stress="-0.09783 0.066573 -0.034313 0.066573 -0.022538 0.042348 -0.034313 0.042348 -0.115618" dft_virial="4.088627322573637 -2.782297728157975 1.434049568838487 -2.782297728157975 0.9419348113683391 -1.7698578131079254 1.434049568838487 -1.7698578131079254 4.832044503540005" pbc="T T T"
Mg      14.54714235      -6.97125264      -6.84339144       1.00000000       0.66353247       0.45204964       0.02170284      -0.63779000       0.58963000      -0.40172000
Mg       7.32280977       1.92955504      -3.47107302       1.00000000      -0.13202060       0.74078027       0.54909695      -0.41030000       0.36738000      -0.04637000
Mg      -4.41886056      14.60788657     -24.18105607       1.00000000      -0.06577358       0.57524745      -0.01994773      -0.03625000      -0.05653000      -0.00335000
Mg      15.46150340      -6.37156589       7.68785437       1.00000000       0.52769853       0.02816325      -0.55133357      -0.26973000       0.00167000      -0.22144000
Mg       6.72995974       0.31668244     -13.44564044       1.00000000      -0.19439584       0.22529544      -1.12944059       0.48058000      -0.58816000       2.32977000
Mg      20.22964099     -11.47777828       9.94349390       1.00000000       0.04212932       0.47036154      -0.19171962       0.22151000      -0.00586000       0.14755000
Mg      11.57166077      -6.42929698      -9.10731243       1.00000000       0.59839032      -0.06298278       0.54075142       0.09058000       0.00504000       0.10786000
Mg       3.36624051       0.62985470     -16.36985858       1.00000000       0.44969845       0.50775947      -0.46382560      -0.64896000      -0.09583000      -0.04423000
Mg      10.94241765       3.52389940       3.15861499       1.00000000       0.47082529       0.53997411       0.33050333       0.16682000       0.68031000      -2.29679000
Mg      17.87184496      -6.46703812       9.29764848       1.00000000       0.87816134      -0.40821892      -0.55314349       0.54475000      -0.20531000       0.34129000
Mg      16.32816509      -9.04946504      -6.23052774       1.00000000      -0.25258012       0.17003735       0.32231741       0.17492000      -0.39461000       0.34348000
Mg      18.28602924      -9.78386911       8.21074821       1.00000000      -0.93802731      -0.14141094      -0.26521737      -0.22066000       0.34661000      -0.10580000
Mg      18.61863992      -7.22278198       3.21824205       1.00000000      -0.16688244      -0.02567229      -0.33223165      -0.01696000      -0.00565000       0.04698000
Mg       8.83624971       2.34395250      -6.36569387       1.00000000      -0.44107767      -1.14330116       0.05131293       0.03515000      -0.11227000       0.14214000
Mg       9.49765169      -0.01878609      -3.10497758       1.00000000       0.29156945       0.01734204       0.24879693       0.37660000      -0.25217000      -0.08444000
Mg       1.34944619       9.50450084      -6.66933843       1.00000000      -0.30391510       0.06812576      -0.61232794       0.14973000      -0.27426000      -0.25492000
16
Lattice="10.938237092341483 15.46705011136042 9.740061614002823 21.727470176922782 9.973807229891603 -6.511792747730784 -18.290060429370776 14.0611271410739 -1.2691597041599592" Properties=species:S:1:pos:R:3:masses:R:1:momenta:R:3:dft_forces:R:3 ns_energy=-3.137763914657883 volume=7884.245111556185 KEmax=76.970702383392 last_walked_iter_extra=97319 last_walked_iter_clone=93492 iter=97329 ns_P=0.0 config_type=mg16_0GPa_EAM config_n_global=97329 ns_KE=4.934457033747251 temp=2407.1908604892747 dft_energy=-27023.439403 dft_stress="-0.06787 -0.018297 0.013721 -0.018297 0.010314 0.011209 0.013721 0.011209 0.070374" dft_virial="3.3398547249686485 0.9003878282415112 -0.6752047544024581 0.9003878282415112 -0.5075476887185302 -0.5515902698124884 -0.6752047544024581 -0.5515902698124884 -3.4630755328561027" pbc="T T T"
Mg      25.89908720      27.07486292       2.50554131       1.00000000       0.62017006      -0.20014215      -0.20683329       0.02924000      -0.12615000       0.00939000
Mg      18.93341273      23.53421620      -2.04146692       1.00000000       0.36039402      -0.50638097      -0.42893345       0.02994000       0.00733000       0.07378000
Mg      19.23312794      22.93665676       1.60075451       1.00000000      -0.50173686       0.57945285       0.10829223      -0.12806000       0.22448000      -0.02280000
Mg       7.59926114      22.65970252       3.10647419       1.00000000       0.84572379      -0.23743812      -0.56494574       0.00031000      -0.00027000       0.00038000
Mg      17.47279220      25.87361657      -0.43080212       1.00000000      -0.78757209      -0.19441003       0.22317723       0.00942000      -0.11297000       0.21528000
Mg      -1.51248757      18.08804422      -2.12020861       1.00000000       0.07192334       0.04508238      -0.40295397      -0.08210000      -0.32275000       0.01539000
Mg      18.59330002      24.58013916       4.96629929       1.00000000       0.21977279       0.24950478       0.10941506       0.37779000       0.12132000      -0.21743000
Mg      15.98368076      23.05274551       5.36358027       1.00000000       0.03870460      -0.84882791      -0.32563100      -0.29925000      -0.19398000       0.00485000
Mg       1.16030537      19.14399604      -5.70999841       1.00000000      -0.10885221      -1.13679497       0.29334449      -0.14949000       0.09439000      -0.07358000
Mg      -3.82020946      17.74567322       3.46647595       1.00000000      -0.40216238       0.81876928       0.42482636       0.04686000      -0.04120000      -0.06490000
Mg      27.17255198      19.96832967      -0.10269401       1.00000000      -0.34060844      -0.21935544       0.00859364       0.16750000       0.14204000       0.20267000
Mg      -0.45715207      20.91326588      -2.66545428       1.00000000       0.85920683       0.30391329       0.05479867       0.21036000       0.24767000      -0.23288000
Mg      24.56100445      24.08510108       3.63021824       1.00000000       0.43188780      -0.58160378      -0.08559797       0.16088000      -0.02622000      -0.07438000
Mg      14.22642341      34.24975738       0.27106001       1.00000000       0.30745113      -0.25015793      -0.61420946       1.73252000      -0.25316000      -0.20817000
Mg      11.73475420      34.65345659       0.68572748       1.00000000       0.48504413       0.24178578       0.14550318      -1.93847000       0.25204000       0.37572000
Mg      27.93182753      22.97334672       2.39350092       1.00000000       0.28140169       0.43177054       0.51531060      -0.16744000      -0.01258000      -0.00332000
16
Lattice="-5.820378697950659 22.439138826197542 -10.743381711644162 8.984390052541663 8.460208734818082 14.027260972717839 3.1150063582929532 11.112999668378784 -26.214934953747363" Properties=species:S:1:pos:R:3:masses:R:1:momenta:R:3:dft_forces:R:3 ns_energy=-3.5946655725926298 volume=7674.106003581187 KEmax=76.970702383392 last_walked_iter_extra=100172 last_walked_iter_clone=99928 iter=100179 ns_P=0.0 config_type=mg16_0GPa_EAM config_n_global=100179 ns_KE=4.802950417861614 temp=2292.5801560348223 dft_energy=-27023.487446 dft_stress="0.021525 -0.01153 0.011372 -0.01153 -0.044871 0.000586 0.011372 0.000586 0.014533" dft_virial="-1.0310045071348293 0.5522639706046264 -0.5446960861852395 0.5522639706046264 2.1492312771032256 -0.028068229555447622 -0.5446960861852395 -0.028068229555447622 -0.6961016725756319" pbc="T T T"
Mg      -1.32790505       8.32849172      -3.07463755       1.00000000       0.50277230      -0.15182836       0.40327952       0.09852000      -0.52859000       0.39446000
Mg       5.75424122      14.84092086      -1.33048341       1.00000000      -0.59723108      -0.22708473       0.38098639       0.07172000      -0.17285000      -0.08186000
Mg       3.23317799      22.80189402     -13.21230571       1.00000000      -0.58020721       0.06807467       0.62744479      -0.44198000       0.53176000       0.31781000
Mg       2.33910875      31.49793907     -11.36936608       1.00000000      -0.64630040      -0.20029358      -0.11479152      -0.14362000       0.14000000       0.02423000
Mg       0.64600088      22.80466912     -15.23539169       1.00000000      -0.46601452       0.10285676       0.10948064       0.10987000      -0.07695000       0.03267000
Mg       3.35383694       7.58977347      -3.04338204       1.00000000       0.04595459      -0.12511640       0.32664584      -0.54788000      -0.54376000      -0.00509000
Mg       5.18904189      22.10443403     -10.98672683       1.00000000       0.16054679      -0.29571464      -0.34371393      -0.01427000      -0.12026000       0.05441000
Mg      -1.29693958      10.66995368      -4.86946173       1.00000000       0.31184125      -0.32947788       0.41931893       0.00960000       0.50250000      -0.39105000
Mg       7.85985089      10.99944486       3.74797074       1.00000000      -0.37231683       0.20948940       1.06978953      -0.05783000       0.16402000      -0.02209000
Mg       4.40270461      20.99445342     -15.03770200       1.00000000      -0.22550931      -0.04403116       0.92325728       0.12565000      -0.39295000      -0.25314000
Mg       7.49534255      12.20813838      -3.12102530       1.00000000      -0.00981065      -0.87296005       0.21511401      -0.09486000       0.04110000       0.18934000
Mg       8.34256219      16.79202490      -2.23223364       1.00000000      -0.09658892       0.03278526      -0.62395642       0.00093000      -0.06183000      -0.01982000
Mg       5.05778272       9.90713819      -3.08945699       1.00000000       0.01392784       0.42940668      -0.02763205       0.63103000       0.59480000       0.12021000
Mg      -1.42521540      17.76793558     -13.45603323       1.00000000       0.31079701       0.09268392       0.59857690       0.03053000       0.03961000       0.01517000
Mg       1.67762195      21.00600252     -11.06816951       1.00000000       0.04296035       1.00786585       0.63721129       0.18965000       0.02101000      -0.16696000
Mg       2.98989930      30.46041543      -7.65037041       1.00000000      -0.89869364      -0.03816579       0.33009523       0.03293000      -0.13764000      -0.20828000
16
Lattice="11.589090589319424 -1.6084371149973078 16.173978842094552 -25.762563865485298 -22.803916146250902 -10.207524931562466 -4.676626128311127 -13.107378737980694 -18.763135853439934" Properties=species:S:1:pos:R:3:masses:R:1:momenta:R:3:dft_forces:R:3 ns_energy=-4.018096808984846 volume=7845.568020878953 KEmax=76.970702383392 last_walked_iter_clone=97786 last_walked_iter_extra=103026 iter=103029 ns_P=0.0 config_type=mg16_0GPa_EAM config_n_global=103029 ns_KE=3.6366864747527092 temp=2192.7208225804484 dft_energy=-27023.237925 dft_stress="-0.017637 -0.004457 -0.00564 -0.004457 0.03086 0.030957 -0.00564 0.030957 -0.078328" dft_virial="0.8636518682637494 0.21825119787103994 0.2761805600163036 0.21825119787103994 -1.5111581705856614 -1.5159080844724664 0.2761805600163036 -1.5159080844724664 3.8355799476874166" pbc="T T T"
Mg     -12.34583151     -24.18275080     -12.25875208       1.00000000       0.31071976       0.06344104       0.39518347      -0.44662000       0.26293000       0.22535000
Mg      -2.30573314      -7.64011024      -8.62733893       1.00000000       0.33607480       0.18604611       0.95299061      -0.31544000      -0.65819000       2.17677000
Mg       0.03141139      -8.15734431      -6.96591295       1.00000000      -0.09865752      -0.45859686      -0.05649066       0.33413000      -0.08337000       0.14637000
Mg     -17.23362767     -25.33903454      -0.38636466       1.00000000       0.55821025       0.19965895      -0.15978685      -0.00049000      -0.05342000      -0.07270000
Mg     -11.03390739     -24.16211055      -9.04008193       1.00000000       0.16701767       0.24948176      -0.49836494       0.03076000       0.01971000      -0.23770000
Mg     -11.81109496     -21.79075745     -14.71468881       1.00000000       0.52797212       0.25180374      -0.56554470       0.04785000      -0.12691000       0.10639000
Mg     -19.79534562     -29.94462935      -8.80439052       1.00000000       0.12384024      -0.11026711      -0.41177519       0.04642000       0.03763000       0.16899000
Mg     -17.46200621     -27.52919214      -3.06280370       1.00000000      -0.20104715       0.00994971       0.38882601       0.19175000       0.03393000       0.18801000
Mg     -12.19289540     -17.51090002     -16.98023495       1.00000000       0.28249398       0.10775423       0.59957043       0.00563000      -0.06039000       0.03145000
Mg      -8.62581749     -21.73225062      -8.16105965       1.00000000      -0.19364142      -0.20215013       0.38627636      -0.04194000      -0.03792000      -0.00457000
Mg      -2.19504248      -9.94049297     -10.67072817       1.00000000       0.19278240      -0.08606192       0.51495876       0.13729000       0.07926000       0.03152000
Mg     -24.37524190     -32.76120838     -21.53942081       1.00000000       0.46647864       0.27264718       0.15140317      -0.15434000       0.03259000       0.04781000
Mg       6.82005877      -6.28928303       5.03200922       1.00000000       0.38896982      -0.40524591       0.17386914      -0.02809000      -0.35616000      -0.25756000
Mg     -11.14441949     -25.89886203      -2.03702095       1.00000000      -0.59295942       0.01708386      -0.27876194      -0.01175000      -0.00171000      -0.00205000
Mg      -9.75373094     -25.15226860     -13.15564779       1.00000000       0.18469139      -0.32250822      -0.28434475       0.40382000      -0.05858000      -0.11767000
Mg     -16.64264242     -31.30105071      -4.93703600       1.00000000       0.24600244      -1.22431082       0.33840946      -0.19896000       0.97060000      -2.43039000
16
Lattice="-15.505669737463121 -2.3930912690121566 -23.814621836930648 7.657582629442953 -13.422416144938072 28.645110957155275 -6.688295529337785 1.1997159470735028 21.18824006602446" Properties=species:S:1:pos:R:3:masses:R:1:momenta:R:3:dft_forces:R:3 ns_energy=-4.444208156805348 volume=7708.534371668575 KEmax=76.970702383392 last_walked_iter_extra=105862 last_walked_iter_clone=105798 iter=105879 ns_P=0.0 config_type=mg16_0GPa_EAM config_n_global=105879 ns_KE=4.554362624426576 temp=2099.0963986631587 dft_energy=-27023.843664 dft_stress="-0.003098 -0.056933 -0.008028 -0.056933 -0.062044 0.03685 -0.008028 0.03685 0.049003" dft_virial="0.14905372587140203 2.739211031322315 0.38625026187721617 2.739211031322315 2.985115999988789 -1.7729599090901114 0.38625026187721617 -1.7729599090901114 -2.3576758324326383" pbc="T T T"
Mg      -0.93930602      -5.45822406       7.07590834       1.00000000       0.13288794      -1.02735542       0.56225299       0.08022000       0.01498000       0.14233000
Mg      -6.93552829      -8.77391661      24.65233180       1.00000000       0.38984174      -0.85101570       0.11104590      -0.25489000      -1.27391000       0.14790000
Mg      -5.48623329     -13.95626736      15.84282779       1.00000000      -0.80904511      -0.24758287       0.12011645       0.04240000      -0.03461000       0.03396000
Mg      -2.68997993      -4.15477775      10.12482890       1.00000000      -0.41662877      -0.23930329       0.21312992      -0.55853000      -0.87591000      -0.40907000
Mg      -2.69121903      -7.55937602      19.84983514       1.00000000       0.12430113       0.43591844       0.14684356       0.06034000      -0.23250000       0.03720000
Mg     -10.88112151     -11.71482005      24.37906281       1.00000000       0.51524157      -0.34456335       0.82662466       0.01637000       0.03158000      -0.00792000
Mg       0.43192676     -11.28820074      18.91138928       1.00000000       0.51696097      -0.14131788      -0.18536474       0.21131000       0.42257000       0.19145000
Mg      -4.78171225      -5.12663188      19.55871957       1.00000000       0.24693883      -0.22253565      -0.55722491      -0.12494000       0.07838000       0.07662000
Mg      -1.20775517     -13.56575442      17.80309330       1.00000000       0.87646739      -0.06575049       0.20086099      -0.33948000      -0.36415000      -0.20883000
Mg      -6.37934565      -6.18518799      24.16737050       1.00000000       0.12222340       0.82165082      -0.01399304       0.29782000       1.11551000      -0.08938000
Mg      -7.82684474     -12.10958377      23.31368120       1.00000000       0.31598531      -0.02367812      -0.21314506      -0.10900000      -0.08701000       0.24970000
Mg      -6.26029447     -10.12199549      21.80493316       1.00000000      -0.07670956       0.49055121       0.75526684       0.22898000       0.39996000      -0.09986000
Mg      -5.17316528      -6.18684189      27.92311088       1.00000000      -0.01929048       0.16033164      -0.36023128       0.04632000       0.15632000      -0.32154000
Mg      -0.85862816      -2.17039550      10.68328253       1.00000000       0.13456097       0.24015239       0.48228178       0.84374000       0.66641000       0.12371000
Mg      -7.59690185      -7.28315216      29.34437973       1.00000000       0.25767183       0.19821227       0.29159012      -0.11316000       0.05497000       0.15333000
Mg      -4.55916888      -3.86524613      30.08620304       1.00000000       0.22127759       0.30976230       0.72216732      -0.32752000      -0.07259000      -0.01962000
16
Lattice="-16.040889760778978 2.1208474146629572 -13.330167889782308 15.30772934438351 4.346377776067195 -10.850845544564828 19.944123578959807 -14.003511021088658 -3.3643740055750784" Properties=species:S:1:pos:R:3:masses:R:1:momenta:R:3:dft_forces:R:3 ns_energy=-4.850837830011132 volume=6335.229681165981 KEmax=76.970702383392 last_walked_iter_extra=108673 last_walked_iter_clone=107383 iter=108729 ns_P=0.0 config_type=mg16_0GPa_EAM config_n_global=108729 ns_KE=3.947536116403924 temp=2016.6249993542071 dft_energy=-27024.725295 dft_stress="-0.003882 0.023943 -0.075183 0.023943 0.075158 -0.025425 -0.075183 -0.025425 0.052752" dft_virial="0.15349969100164726 -0.9467395934189697 2.9728406152954263 -0.9467395934189697 -2.9718520804486874 1.0053399391336635 2.9728406152954263 1.0053399391336635 -2.0858876094072376" pbc="T T T"
Mg       0.27230261      -0.13718806      -8.55642033       1.00000000       0.31618999      -0.38523346      -0.11925487      -0.06929000      -0.10079000      -0.10280000
Mg      12.33483357       1.55069674     -18.71066879       1.00000000       0.12220091      -0.01031533      -0.38978330      -0.22587000       0.35823000      -0.13550000